<LesHouchesEvents version="1.0">
<header>
<!--
file generated with POWHEG-BOX-V2
SVN status Begin
/afs/cern.ch/work/m/mknight/private/ggtt/PowhegGridpacks/CMSSW_10_6_19/src/genproductions/bin/Powheg/cHHH1_working/POWHEG-BOX
no svn repository found
/afs/cern.ch/work/m/mknight/private/ggtt/PowhegGridpacks/CMSSW_10_6_19/src/genproductions/bin/Powheg/cHHH1_working/POWHEG-BOX/ggHH_EWChL
no svn repository found
SVN status End
Process: ggHH_EWChL
Input file powheg.input contained:
! ggHH production parameters:
mtdep 3              ! 0: Higgs effective field theory (HEFT)
!                      1: Born improved HEFT
!                      2: approximated full theory (FTapprox)
!                      3: full theory

hmass 125            ! Higgs boson mass
topmass 173          ! top quark mass (THIS VALUE IS HARD CODED IN THE VIRTUAL
                     ! MATRIX ELEMENT AND FOR CONSISTENCY HAS NOT TO BE CHANGED WHEN
                     ! RUNNING FULL THEORY PREDICTIONS - i.e. mtdep=3)
hdecaymode -1        ! PDG code for Higgs boson decay products (it affects only the SMC)
!                      allowed values are:
!                      0 all decay channels open
!                      1-6 d dbar, u ubar,..., t tbar (as in HERWIG)
!                      7-9 e+ e-, mu+ mu-, tau+ tau-
!                      10  W+W-
!                      11  ZZ
!                      12  gamma gamma
!                      -1  all decay channels closed
cHHH 1.0

! general parameters:
numevts 72
ih1         1        ! hadron 1 (1 for protons, -1 for antiprotons)
ih2         1        ! hadron 2 (1 for protons, -1 for antiprotons)
ebeam1 6500d0        ! energy of beam 1
ebeam2 6500d0        ! energy of beam 2
! To be set only if using LHA pdfs
lhans1 325300         ! pdf set for hadron 1 (LHA numbering)
lhans2 325300	      ! pdf set for hadron 2 (LHA numbering)
! To be set only if using internal mlm pdf
# ndns1 131          ! pdf set for hadron 1 (mlm numbering)
# ndns2 131          ! pdf set for hadron 2 (mlm numbering)
! To be set only if using different pdf sets for the two incoming hadrons
! QCDLambda5 0.25    ! for not equal pdf sets

! Parameters to allow or not the use of stored data
use-old-grid    1    ! if 1 use old grid if file pwggrids.dat is present (<> 1 regenerate)
use-old-ubound  1    ! if 1 use norm of upper bounding function stored in pwgubound.dat, if present;
!
ncall1  10000        ! number of calls for initializing the integration grid
itmx1       3        ! number of iterations for initializing the integration grid
ncall2  10000        ! number of calls for computing the integral and finding upper bound
itmx2       3        ! number of iterations for computing the integral and finding upper bound
foldcsi     1        ! number of folds on csi integration
foldy       1        ! number of folds on  y  integration
foldphi     1        ! number of folds on phi integration
nubound 10000        ! number of bbarra calls to setup norm of upper bounding function
# icsimax   1        ! <= 100, number of csi subdivision when computing the upper bounds
# iymax     1        ! <= 100, number of y subdivision when computing the upper bounds
# xupbound 2d0       ! increase upper bound for radiation generation


! OPTIONAL PARAMETERS

! scale settings:
#fixedscale   1      ! (dafault 0) Use muren = mufac = 2*m_H
facscfact   1d0      ! (default 1d0) fac scale factor: mufact = muref * facscfact
renscfact   1d0      ! (default 1d0) ren scale factor: muren  = muref * renscfact

! Born, plots and powheg strategy:
#bornonly         1  ! (default 0) if 1 do Born only
testplots         1  ! (default 0, do not) do NLO and PWHG distributions
fastbtlbound      1  ! fast evaluation of Btilde upper bounds
storemintupb      1  ! store function calls in binary file for more precise generation
ubexcess_correct  1  ! corrects for error in upper bound estimate
#storeinfo_rwgt 0
softtest          0  ! no check of the soft limit in the real
colltest          0  ! no check of the collinear limit in the real

! PARAMETERS needed for ggHH
hdamp           250

! PARAMETERS for parallel runnning
! - non parallel (for testing purposes only)
iseed 306751841
#rand1     0         !  skipping  rand2*100000000+rand1 numbers.
#rand2     0         !  (see RM48 short writeup in CERNLIB)

! - parallel
#manyseeds 1
                     ! seeds in the same directory.
                     ! If set to 1, the program asks for an integer j;
                     ! The file pwgseeds.dat at line j is read, and the
                     ! integer at line j is used to initialize the random
                     ! sequence for the generation of the event.
                     ! The event file is called pwgevents-'j'.lhe
#parallelstage 4
#xgriditeration 1 1
#maxseeds    1000

! PARAMETERS for reweighting
#rwl_file 'reweight_setup.xml'


! PARAMETERS for Pythia8
#py8tune  xxx
#py8hepmc 1
#py8nohad 1
#py8nompi 1

check_bad_st1 1
check_bad_st2 1
max_io_bufsize  2000000




fakevirt 1


#pdfreweight 0

#withnegweights 1 1
rwl_group_events 2000
lhapdf6maxsets 50
rwl_file 'pwg-rwl.dat'
rwl_format_rwgt 1
End of powheg.input content
PDF package: lha
 Random number generator initialized with:    306751841             0             0
-->
<initrwgt>
<weightgroup combine="envelope" name="scale_variation">
<weight id="1001"> lhapdf=325300 renscfact=1d0 facscfact=1d0 </weight>
<weight id="1002"> lhapdf=325300 renscfact=1d0 facscfact=2d0 </weight>
<weight id="1003"> lhapdf=325300 renscfact=1d0 facscfact=0.5d0 </weight>
<weight id="1004"> lhapdf=325300 renscfact=2d0 facscfact=1d0 </weight>
<weight id="1005"> lhapdf=325300 renscfact=2d0 facscfact=2d0 </weight>
<weight id="1006"> lhapdf=325300 renscfact=2d0 facscfact=0.5d0 </weight>
<weight id="1007"> lhapdf=325300 renscfact=0.5d0 facscfact=1d0 </weight>
<weight id="1008"> lhapdf=325300 renscfact=0.5d0 facscfact=2d0 </weight>
<weight id="1009"> lhapdf=325300 renscfact=0.5d0 facscfact=0.5d0 </weight>
</weightgroup>
<weightgroup combine="hessian" name="PDF_variation1">
<weight id="3200"> lhapdf=325300 </weight>
<weight id="3201"> lhapdf=325301 </weight>
<weight id="3202"> lhapdf=325302 </weight>
<weight id="3203"> lhapdf=325303 </weight>
<weight id="3204"> lhapdf=325304 </weight>
<weight id="3205"> lhapdf=325305 </weight>
<weight id="3206"> lhapdf=325306 </weight>
<weight id="3207"> lhapdf=325307 </weight>
<weight id="3208"> lhapdf=325308 </weight>
<weight id="3209"> lhapdf=325309 </weight>
<weight id="3210"> lhapdf=325310 </weight>
<weight id="3211"> lhapdf=325311 </weight>
<weight id="3212"> lhapdf=325312 </weight>
<weight id="3213"> lhapdf=325313 </weight>
<weight id="3214"> lhapdf=325314 </weight>
<weight id="3215"> lhapdf=325315 </weight>
<weight id="3216"> lhapdf=325316 </weight>
<weight id="3217"> lhapdf=325317 </weight>
<weight id="3218"> lhapdf=325318 </weight>
<weight id="3219"> lhapdf=325319 </weight>
<weight id="3220"> lhapdf=325320 </weight>
<weight id="3221"> lhapdf=325321 </weight>
<weight id="3222"> lhapdf=325322 </weight>
<weight id="3223"> lhapdf=325323 </weight>
<weight id="3224"> lhapdf=325324 </weight>
<weight id="3225"> lhapdf=325325 </weight>
<weight id="3226"> lhapdf=325326 </weight>
<weight id="3227"> lhapdf=325327 </weight>
<weight id="3228"> lhapdf=325328 </weight>
<weight id="3229"> lhapdf=325329 </weight>
<weight id="3230"> lhapdf=325330 </weight>
<weight id="3231"> lhapdf=325331 </weight>
<weight id="3232"> lhapdf=325332 </weight>
<weight id="3233"> lhapdf=325333 </weight>
<weight id="3234"> lhapdf=325334 </weight>
<weight id="3235"> lhapdf=325335 </weight>
<weight id="3236"> lhapdf=325336 </weight>
<weight id="3237"> lhapdf=325337 </weight>
<weight id="3238"> lhapdf=325338 </weight>
<weight id="3239"> lhapdf=325339 </weight>
<weight id="3240"> lhapdf=325340 </weight>
<weight id="3241"> lhapdf=325341 </weight>
<weight id="3242"> lhapdf=325342 </weight>
<weight id="3243"> lhapdf=325343 </weight>
<weight id="3244"> lhapdf=325344 </weight>
<weight id="3245"> lhapdf=325345 </weight>
<weight id="3246"> lhapdf=325346 </weight>
<weight id="3247"> lhapdf=325347 </weight>
<weight id="3248"> lhapdf=325348 </weight>
<weight id="3249"> lhapdf=325349 </weight>
<weight id="3250"> lhapdf=325350 </weight>
<weight id="3251"> lhapdf=325351 </weight>
<weight id="3252"> lhapdf=325352 </weight>
<weight id="3253"> lhapdf=325353 </weight>
<weight id="3254"> lhapdf=325354 </weight>
<weight id="3255"> lhapdf=325355 </weight>
<weight id="3256"> lhapdf=325356 </weight>
<weight id="3257"> lhapdf=325357 </weight>
<weight id="3258"> lhapdf=325358 </weight>
<weight id="3259"> lhapdf=325359 </weight>
<weight id="3260"> lhapdf=325360 </weight>
<weight id="3261"> lhapdf=325361 </weight>
<weight id="3262"> lhapdf=325362 </weight>
<weight id="3263"> lhapdf=325363 </weight>
<weight id="3264"> lhapdf=325364 </weight>
<weight id="3265"> lhapdf=325365 </weight>
<weight id="3266"> lhapdf=325366 </weight>
<weight id="3267"> lhapdf=325367 </weight>
<weight id="3268"> lhapdf=325368 </weight>
<weight id="3269"> lhapdf=325369 </weight>
<weight id="3270"> lhapdf=325370 </weight>
<weight id="3271"> lhapdf=325371 </weight>
<weight id="3272"> lhapdf=325372 </weight>
<weight id="3273"> lhapdf=325373 </weight>
<weight id="3274"> lhapdf=325374 </weight>
<weight id="3275"> lhapdf=325375 </weight>
<weight id="3276"> lhapdf=325376 </weight>
<weight id="3277"> lhapdf=325377 </weight>
<weight id="3278"> lhapdf=325378 </weight>
<weight id="3279"> lhapdf=325379 </weight>
<weight id="3280"> lhapdf=325380 </weight>
<weight id="3281"> lhapdf=325381 </weight>
<weight id="3282"> lhapdf=325382 </weight>
<weight id="3283"> lhapdf=325383 </weight>
<weight id="3284"> lhapdf=325384 </weight>
<weight id="3285"> lhapdf=325385 </weight>
<weight id="3286"> lhapdf=325386 </weight>
<weight id="3287"> lhapdf=325387 </weight>
<weight id="3288"> lhapdf=325388 </weight>
<weight id="3289"> lhapdf=325389 </weight>
<weight id="3290"> lhapdf=325390 </weight>
<weight id="3291"> lhapdf=325391 </weight>
<weight id="3292"> lhapdf=325392 </weight>
<weight id="3293"> lhapdf=325393 </weight>
<weight id="3294"> lhapdf=325394 </weight>
<weight id="3295"> lhapdf=325395 </weight>
<weight id="3296"> lhapdf=325396 </weight>
<weight id="3297"> lhapdf=325397 </weight>
<weight id="3298"> lhapdf=325398 </weight>
<weight id="3299"> lhapdf=325399 </weight>
<weight id="3300"> lhapdf=325400 </weight>
<weight id="3301"> lhapdf=325401 </weight>
<weight id="3302"> lhapdf=325402 </weight>
<weight id="2000"> lhapdf=306000 </weight>
<weight id="2001"> lhapdf=306001 </weight>
<weight id="2002"> lhapdf=306002 </weight>
<weight id="2003"> lhapdf=306003 </weight>
<weight id="2004"> lhapdf=306004 </weight>
<weight id="2005"> lhapdf=306005 </weight>
<weight id="2006"> lhapdf=306006 </weight>
<weight id="2007"> lhapdf=306007 </weight>
<weight id="2008"> lhapdf=306008 </weight>
<weight id="2009"> lhapdf=306009 </weight>
<weight id="2010"> lhapdf=306010 </weight>
<weight id="2011"> lhapdf=306011 </weight>
<weight id="2012"> lhapdf=306012 </weight>
<weight id="2013"> lhapdf=306013 </weight>
<weight id="2014"> lhapdf=306014 </weight>
<weight id="2015"> lhapdf=306015 </weight>
<weight id="2016"> lhapdf=306016 </weight>
<weight id="2017"> lhapdf=306017 </weight>
<weight id="2018"> lhapdf=306018 </weight>
<weight id="2019"> lhapdf=306019 </weight>
<weight id="2020"> lhapdf=306020 </weight>
<weight id="2021"> lhapdf=306021 </weight>
<weight id="2022"> lhapdf=306022 </weight>
<weight id="2023"> lhapdf=306023 </weight>
<weight id="2024"> lhapdf=306024 </weight>
<weight id="2025"> lhapdf=306025 </weight>
<weight id="2026"> lhapdf=306026 </weight>
<weight id="2027"> lhapdf=306027 </weight>
<weight id="2028"> lhapdf=306028 </weight>
<weight id="2029"> lhapdf=306029 </weight>
<weight id="2030"> lhapdf=306030 </weight>
<weight id="2031"> lhapdf=306031 </weight>
<weight id="2032"> lhapdf=306032 </weight>
<weight id="2033"> lhapdf=306033 </weight>
<weight id="2034"> lhapdf=306034 </weight>
<weight id="2035"> lhapdf=306035 </weight>
<weight id="2036"> lhapdf=306036 </weight>
<weight id="2037"> lhapdf=306037 </weight>
<weight id="2038"> lhapdf=306038 </weight>
<weight id="2039"> lhapdf=306039 </weight>
<weight id="2040"> lhapdf=306040 </weight>
<weight id="2041"> lhapdf=306041 </weight>
<weight id="2042"> lhapdf=306042 </weight>
<weight id="2043"> lhapdf=306043 </weight>
<weight id="2044"> lhapdf=306044 </weight>
<weight id="2045"> lhapdf=306045 </weight>
<weight id="2046"> lhapdf=306046 </weight>
<weight id="2047"> lhapdf=306047 </weight>
<weight id="2048"> lhapdf=306048 </weight>
<weight id="2049"> lhapdf=306049 </weight>
<weight id="2050"> lhapdf=306050 </weight>
<weight id="2051"> lhapdf=306051 </weight>
<weight id="2052"> lhapdf=306052 </weight>
<weight id="2053"> lhapdf=306053 </weight>
<weight id="2054"> lhapdf=306054 </weight>
<weight id="2055"> lhapdf=306055 </weight>
<weight id="2056"> lhapdf=306056 </weight>
<weight id="2057"> lhapdf=306057 </weight>
<weight id="2058"> lhapdf=306058 </weight>
<weight id="2059"> lhapdf=306059 </weight>
<weight id="2060"> lhapdf=306060 </weight>
<weight id="2061"> lhapdf=306061 </weight>
<weight id="2062"> lhapdf=306062 </weight>
<weight id="2063"> lhapdf=306063 </weight>
<weight id="2064"> lhapdf=306064 </weight>
<weight id="2065"> lhapdf=306065 </weight>
<weight id="2066"> lhapdf=306066 </weight>
<weight id="2067"> lhapdf=306067 </weight>
<weight id="2068"> lhapdf=306068 </weight>
<weight id="2069"> lhapdf=306069 </weight>
<weight id="2070"> lhapdf=306070 </weight>
<weight id="2071"> lhapdf=306071 </weight>
<weight id="2072"> lhapdf=306072 </weight>
<weight id="2073"> lhapdf=306073 </weight>
<weight id="2074"> lhapdf=306074 </weight>
<weight id="2075"> lhapdf=306075 </weight>
<weight id="2076"> lhapdf=306076 </weight>
<weight id="2077"> lhapdf=306077 </weight>
<weight id="2078"> lhapdf=306078 </weight>
<weight id="2079"> lhapdf=306079 </weight>
<weight id="2080"> lhapdf=306080 </weight>
<weight id="2081"> lhapdf=306081 </weight>
<weight id="2082"> lhapdf=306082 </weight>
<weight id="2083"> lhapdf=306083 </weight>
<weight id="2084"> lhapdf=306084 </weight>
<weight id="2085"> lhapdf=306085 </weight>
<weight id="2086"> lhapdf=306086 </weight>
<weight id="2087"> lhapdf=306087 </weight>
<weight id="2088"> lhapdf=306088 </weight>
<weight id="2089"> lhapdf=306089 </weight>
<weight id="2090"> lhapdf=306090 </weight>
<weight id="2091"> lhapdf=306091 </weight>
<weight id="2092"> lhapdf=306092 </weight>
<weight id="2093"> lhapdf=306093 </weight>
<weight id="2094"> lhapdf=306094 </weight>
<weight id="2095"> lhapdf=306095 </weight>
<weight id="2096"> lhapdf=306096 </weight>
<weight id="2097"> lhapdf=306097 </weight>
<weight id="2098"> lhapdf=306098 </weight>
<weight id="2099"> lhapdf=306099 </weight>
<weight id="2100"> lhapdf=306100 </weight>
<weight id="2101"> lhapdf=306101 </weight>
<weight id="2102"> lhapdf=306102 </weight>
<weight id="2104"> lhapdf=322500 </weight>
<weight id="2105"> lhapdf=322700 </weight>
<weight id="2106"> lhapdf=322900 </weight>
<weight id="2107"> lhapdf=323100 </weight>
<weight id="2108"> lhapdf=323300 </weight>
<weight id="2109"> lhapdf=323500 </weight>
<weight id="2110"> lhapdf=323700 </weight>
<weight id="2111"> lhapdf=323900 </weight>
<weight id="3000"> lhapdf=305800 </weight>
<weight id="3001"> lhapdf=305801 </weight>
<weight id="3002"> lhapdf=305802 </weight>
<weight id="3003"> lhapdf=305803 </weight>
<weight id="3004"> lhapdf=305804 </weight>
<weight id="3005"> lhapdf=305805 </weight>
<weight id="3006"> lhapdf=305806 </weight>
<weight id="3007"> lhapdf=305807 </weight>
<weight id="3008"> lhapdf=305808 </weight>
<weight id="3009"> lhapdf=305809 </weight>
<weight id="3010"> lhapdf=305810 </weight>
<weight id="3011"> lhapdf=305811 </weight>
<weight id="3012"> lhapdf=305812 </weight>
<weight id="3013"> lhapdf=305813 </weight>
<weight id="3014"> lhapdf=305814 </weight>
<weight id="3015"> lhapdf=305815 </weight>
<weight id="3016"> lhapdf=305816 </weight>
<weight id="3017"> lhapdf=305817 </weight>
<weight id="3018"> lhapdf=305818 </weight>
<weight id="3019"> lhapdf=305819 </weight>
<weight id="3020"> lhapdf=305820 </weight>
<weight id="3021"> lhapdf=305821 </weight>
<weight id="3022"> lhapdf=305822 </weight>
<weight id="3023"> lhapdf=305823 </weight>
<weight id="3024"> lhapdf=305824 </weight>
<weight id="3025"> lhapdf=305825 </weight>
<weight id="3026"> lhapdf=305826 </weight>
<weight id="3027"> lhapdf=305827 </weight>
<weight id="3028"> lhapdf=305828 </weight>
<weight id="3029"> lhapdf=305829 </weight>
<weight id="3030"> lhapdf=305830 </weight>
<weight id="3031"> lhapdf=305831 </weight>
<weight id="3032"> lhapdf=305832 </weight>
<weight id="3033"> lhapdf=305833 </weight>
<weight id="3034"> lhapdf=305834 </weight>
<weight id="3035"> lhapdf=305835 </weight>
<weight id="3036"> lhapdf=305836 </weight>
<weight id="3037"> lhapdf=305837 </weight>
<weight id="3038"> lhapdf=305838 </weight>
<weight id="3039"> lhapdf=305839 </weight>
<weight id="3040"> lhapdf=305840 </weight>
<weight id="3041"> lhapdf=305841 </weight>
<weight id="3042"> lhapdf=305842 </weight>
<weight id="3043"> lhapdf=305843 </weight>
<weight id="3044"> lhapdf=305844 </weight>
<weight id="3045"> lhapdf=305845 </weight>
<weight id="3046"> lhapdf=305846 </weight>
<weight id="3047"> lhapdf=305847 </weight>
<weight id="3048"> lhapdf=305848 </weight>
<weight id="3049"> lhapdf=305849 </weight>
<weight id="3050"> lhapdf=305850 </weight>
<weight id="3051"> lhapdf=305851 </weight>
<weight id="3052"> lhapdf=305852 </weight>
<weight id="3053"> lhapdf=305853 </weight>
<weight id="3054"> lhapdf=305854 </weight>
<weight id="3055"> lhapdf=305855 </weight>
<weight id="3056"> lhapdf=305856 </weight>
<weight id="3057"> lhapdf=305857 </weight>
<weight id="3058"> lhapdf=305858 </weight>
<weight id="3059"> lhapdf=305859 </weight>
<weight id="3060"> lhapdf=305860 </weight>
<weight id="3061"> lhapdf=305861 </weight>
<weight id="3062"> lhapdf=305862 </weight>
<weight id="3063"> lhapdf=305863 </weight>
<weight id="3064"> lhapdf=305864 </weight>
<weight id="3065"> lhapdf=305865 </weight>
<weight id="3066"> lhapdf=305866 </weight>
<weight id="3067"> lhapdf=305867 </weight>
<weight id="3068"> lhapdf=305868 </weight>
<weight id="3069"> lhapdf=305869 </weight>
<weight id="3070"> lhapdf=305870 </weight>
<weight id="3071"> lhapdf=305871 </weight>
<weight id="3072"> lhapdf=305872 </weight>
<weight id="3073"> lhapdf=305873 </weight>
<weight id="3074"> lhapdf=305874 </weight>
<weight id="3075"> lhapdf=305875 </weight>
<weight id="3076"> lhapdf=305876 </weight>
<weight id="3077"> lhapdf=305877 </weight>
<weight id="3078"> lhapdf=305878 </weight>
<weight id="3079"> lhapdf=305879 </weight>
<weight id="3080"> lhapdf=305880 </weight>
<weight id="3081"> lhapdf=305881 </weight>
<weight id="3082"> lhapdf=305882 </weight>
<weight id="3083"> lhapdf=305883 </weight>
<weight id="3084"> lhapdf=305884 </weight>
<weight id="3085"> lhapdf=305885 </weight>
<weight id="3086"> lhapdf=305886 </weight>
<weight id="3087"> lhapdf=305887 </weight>
<weight id="3088"> lhapdf=305888 </weight>
<weight id="3089"> lhapdf=305889 </weight>
<weight id="3090"> lhapdf=305890 </weight>
<weight id="3091"> lhapdf=305891 </weight>
<weight id="3092"> lhapdf=305892 </weight>
<weight id="3093"> lhapdf=305893 </weight>
<weight id="3094"> lhapdf=305894 </weight>
<weight id="3095"> lhapdf=305895 </weight>
<weight id="3096"> lhapdf=305896 </weight>
<weight id="3097"> lhapdf=305897 </weight>
<weight id="3098"> lhapdf=305898 </weight>
<weight id="3099"> lhapdf=305899 </weight>
<weight id="3100"> lhapdf=305900 </weight>
<weight id="3101"> lhapdf=305901 </weight>
<weight id="3102"> lhapdf=305902 </weight>
<weight id="5000"> lhapdf=13000 </weight>
<weight id="5001"> lhapdf=13001 </weight>
<weight id="5002"> lhapdf=13002 </weight>
<weight id="5003"> lhapdf=13003 </weight>
<weight id="5004"> lhapdf=13004 </weight>
<weight id="5005"> lhapdf=13005 </weight>
<weight id="5006"> lhapdf=13006 </weight>
<weight id="5007"> lhapdf=13007 </weight>
<weight id="5008"> lhapdf=13008 </weight>
<weight id="5009"> lhapdf=13009 </weight>
<weight id="5010"> lhapdf=13010 </weight>
<weight id="5011"> lhapdf=13011 </weight>
<weight id="5012"> lhapdf=13012 </weight>
<weight id="5013"> lhapdf=13013 </weight>
<weight id="5014"> lhapdf=13014 </weight>
<weight id="5015"> lhapdf=13015 </weight>
<weight id="5016"> lhapdf=13016 </weight>
<weight id="5017"> lhapdf=13017 </weight>
<weight id="5018"> lhapdf=13018 </weight>
<weight id="5019"> lhapdf=13019 </weight>
<weight id="5020"> lhapdf=13020 </weight>
<weight id="5021"> lhapdf=13021 </weight>
<weight id="5022"> lhapdf=13022 </weight>
<weight id="5023"> lhapdf=13023 </weight>
<weight id="5024"> lhapdf=13024 </weight>
<weight id="5025"> lhapdf=13025 </weight>
<weight id="5026"> lhapdf=13026 </weight>
<weight id="5027"> lhapdf=13027 </weight>
<weight id="5028"> lhapdf=13028 </weight>
<weight id="5029"> lhapdf=13029 </weight>
<weight id="5030"> lhapdf=13030 </weight>
<weight id="5031"> lhapdf=13031 </weight>
<weight id="5032"> lhapdf=13032 </weight>
<weight id="5033"> lhapdf=13033 </weight>
<weight id="5034"> lhapdf=13034 </weight>
<weight id="5035"> lhapdf=13035 </weight>
<weight id="5036"> lhapdf=13036 </weight>
<weight id="5037"> lhapdf=13037 </weight>
<weight id="5038"> lhapdf=13038 </weight>
<weight id="5039"> lhapdf=13039 </weight>
<weight id="5040"> lhapdf=13040 </weight>
<weight id="5041"> lhapdf=13041 </weight>
<weight id="5042"> lhapdf=13042 </weight>
<weight id="5043"> lhapdf=13043 </weight>
<weight id="5044"> lhapdf=13044 </weight>
<weight id="5045"> lhapdf=13045 </weight>
<weight id="5046"> lhapdf=13046 </weight>
<weight id="5047"> lhapdf=13047 </weight>
<weight id="5048"> lhapdf=13048 </weight>
<weight id="5049"> lhapdf=13049 </weight>
<weight id="5050"> lhapdf=13050 </weight>
<weight id="5051"> lhapdf=13051 </weight>
<weight id="5052"> lhapdf=13052 </weight>
<weight id="5053"> lhapdf=13053 </weight>
<weight id="5054"> lhapdf=13054 </weight>
<weight id="5055"> lhapdf=13055 </weight>
<weight id="5056"> lhapdf=13056 </weight>
<weight id="5060"> lhapdf=13065 </weight>
<weight id="5070"> lhapdf=13069 </weight>
<weight id="4000"> lhapdf=13100 </weight>
<weight id="4001"> lhapdf=13101 </weight>
<weight id="4002"> lhapdf=13102 </weight>
<weight id="4003"> lhapdf=13103 </weight>
<weight id="4004"> lhapdf=13104 </weight>
<weight id="4005"> lhapdf=13105 </weight>
<weight id="4006"> lhapdf=13106 </weight>
<weight id="4007"> lhapdf=13107 </weight>
<weight id="4008"> lhapdf=13108 </weight>
<weight id="4009"> lhapdf=13109 </weight>
<weight id="4010"> lhapdf=13110 </weight>
<weight id="4011"> lhapdf=13111 </weight>
<weight id="4012"> lhapdf=13112 </weight>
<weight id="4013"> lhapdf=13113 </weight>
<weight id="4014"> lhapdf=13114 </weight>
<weight id="4015"> lhapdf=13115 </weight>
<weight id="4016"> lhapdf=13116 </weight>
<weight id="4017"> lhapdf=13117 </weight>
<weight id="4018"> lhapdf=13118 </weight>
<weight id="4019"> lhapdf=13119 </weight>
<weight id="4020"> lhapdf=13120 </weight>
<weight id="4021"> lhapdf=13121 </weight>
<weight id="4022"> lhapdf=13122 </weight>
<weight id="4023"> lhapdf=13123 </weight>
<weight id="4024"> lhapdf=13124 </weight>
<weight id="4025"> lhapdf=13125 </weight>
<weight id="4026"> lhapdf=13126 </weight>
<weight id="4027"> lhapdf=13127 </weight>
<weight id="4028"> lhapdf=13128 </weight>
<weight id="4029"> lhapdf=13129 </weight>
<weight id="4030"> lhapdf=13130 </weight>
<weight id="4031"> lhapdf=13131 </weight>
<weight id="4032"> lhapdf=13132 </weight>
<weight id="4033"> lhapdf=13133 </weight>
<weight id="4034"> lhapdf=13134 </weight>
<weight id="4035"> lhapdf=13135 </weight>
<weight id="4036"> lhapdf=13136 </weight>
<weight id="4037"> lhapdf=13137 </weight>
<weight id="4038"> lhapdf=13138 </weight>
<weight id="4039"> lhapdf=13139 </weight>
<weight id="4040"> lhapdf=13140 </weight>
<weight id="4041"> lhapdf=13141 </weight>
<weight id="4042"> lhapdf=13142 </weight>
<weight id="4043"> lhapdf=13143 </weight>
<weight id="4044"> lhapdf=13144 </weight>
<weight id="4045"> lhapdf=13145 </weight>
<weight id="4046"> lhapdf=13146 </weight>
<weight id="4047"> lhapdf=13147 </weight>
<weight id="4048"> lhapdf=13148 </weight>
<weight id="4049"> lhapdf=13149 </weight>
<weight id="4050"> lhapdf=13150 </weight>
<weight id="4051"> lhapdf=13151 </weight>
<weight id="4052"> lhapdf=13152 </weight>
<weight id="4053"> lhapdf=13153 </weight>
<weight id="4054"> lhapdf=13154 </weight>
<weight id="4055"> lhapdf=13155 </weight>
<weight id="4056"> lhapdf=13156 </weight>
<weight id="4060"> lhapdf=13163 </weight>
<weight id="4070"> lhapdf=13167 </weight>
<weight id="4080"> lhapdf=13200 </weight>
<weight id="6000"> lhapdf=25200 </weight>
<weight id="6001"> lhapdf=25201 </weight>
<weight id="6002"> lhapdf=25202 </weight>
<weight id="6003"> lhapdf=25203 </weight>
<weight id="6004"> lhapdf=25204 </weight>
<weight id="6005"> lhapdf=25205 </weight>
<weight id="6006"> lhapdf=25206 </weight>
<weight id="6007"> lhapdf=25207 </weight>
<weight id="6008"> lhapdf=25208 </weight>
<weight id="6009"> lhapdf=25209 </weight>
<weight id="6010"> lhapdf=25210 </weight>
<weight id="6011"> lhapdf=25211 </weight>
<weight id="6012"> lhapdf=25212 </weight>
<weight id="6013"> lhapdf=25213 </weight>
<weight id="6014"> lhapdf=25214 </weight>
<weight id="6015"> lhapdf=25215 </weight>
<weight id="6016"> lhapdf=25216 </weight>
<weight id="6017"> lhapdf=25217 </weight>
<weight id="6018"> lhapdf=25218 </weight>
<weight id="6019"> lhapdf=25219 </weight>
<weight id="6020"> lhapdf=25220 </weight>
<weight id="6021"> lhapdf=25221 </weight>
<weight id="6022"> lhapdf=25222 </weight>
<weight id="6023"> lhapdf=25223 </weight>
<weight id="6024"> lhapdf=25224 </weight>
<weight id="6025"> lhapdf=25225 </weight>
<weight id="6026"> lhapdf=25226 </weight>
<weight id="6027"> lhapdf=25227 </weight>
<weight id="6028"> lhapdf=25228 </weight>
<weight id="6029"> lhapdf=25229 </weight>
<weight id="6030"> lhapdf=25230 </weight>
<weight id="6031"> lhapdf=25231 </weight>
<weight id="6032"> lhapdf=25232 </weight>
<weight id="6033"> lhapdf=25233 </weight>
<weight id="6034"> lhapdf=25234 </weight>
<weight id="6035"> lhapdf=25235 </weight>
<weight id="6036"> lhapdf=25236 </weight>
<weight id="6037"> lhapdf=25237 </weight>
<weight id="6038"> lhapdf=25238 </weight>
<weight id="6039"> lhapdf=25239 </weight>
<weight id="6040"> lhapdf=25240 </weight>
<weight id="6041"> lhapdf=25241 </weight>
<weight id="6042"> lhapdf=25242 </weight>
<weight id="6043"> lhapdf=25243 </weight>
<weight id="6044"> lhapdf=25244 </weight>
<weight id="6045"> lhapdf=25245 </weight>
<weight id="6046"> lhapdf=25246 </weight>
<weight id="6047"> lhapdf=25247 </weight>
<weight id="6048"> lhapdf=25248 </weight>
<weight id="6049"> lhapdf=25249 </weight>
<weight id="6050"> lhapdf=25250 </weight>
<weight id="7000"> lhapdf=25300 </weight>
<weight id="7001"> lhapdf=25301 </weight>
<weight id="7002"> lhapdf=25302 </weight>
<weight id="7003"> lhapdf=25303 </weight>
<weight id="7004"> lhapdf=25304 </weight>
<weight id="7005"> lhapdf=25305 </weight>
<weight id="7006"> lhapdf=25306 </weight>
<weight id="7007"> lhapdf=25307 </weight>
<weight id="7008"> lhapdf=25308 </weight>
<weight id="7009"> lhapdf=25309 </weight>
<weight id="7010"> lhapdf=25310 </weight>
<weight id="7011"> lhapdf=25311 </weight>
<weight id="7012"> lhapdf=25312 </weight>
<weight id="7013"> lhapdf=25313 </weight>
<weight id="7014"> lhapdf=25314 </weight>
<weight id="7015"> lhapdf=25315 </weight>
<weight id="7016"> lhapdf=25316 </weight>
<weight id="7017"> lhapdf=25317 </weight>
<weight id="7018"> lhapdf=25318 </weight>
<weight id="7019"> lhapdf=25319 </weight>
<weight id="7020"> lhapdf=25320 </weight>
<weight id="7021"> lhapdf=25321 </weight>
<weight id="7022"> lhapdf=25322 </weight>
<weight id="7023"> lhapdf=25323 </weight>
<weight id="7024"> lhapdf=25324 </weight>
<weight id="7025"> lhapdf=25325 </weight>
<weight id="7026"> lhapdf=25326 </weight>
<weight id="7027"> lhapdf=25327 </weight>
<weight id="7028"> lhapdf=25328 </weight>
<weight id="7029"> lhapdf=25329 </weight>
<weight id="7030"> lhapdf=25330 </weight>
<weight id="7031"> lhapdf=25331 </weight>
<weight id="7032"> lhapdf=25332 </weight>
<weight id="7033"> lhapdf=25333 </weight>
<weight id="7034"> lhapdf=25334 </weight>
<weight id="7035"> lhapdf=25335 </weight>
<weight id="7036"> lhapdf=25336 </weight>
<weight id="7037"> lhapdf=25337 </weight>
<weight id="7038"> lhapdf=25338 </weight>
<weight id="7039"> lhapdf=25339 </weight>
<weight id="7040"> lhapdf=25340 </weight>
<weight id="7041"> lhapdf=25341 </weight>
<weight id="7042"> lhapdf=25342 </weight>
<weight id="7043"> lhapdf=25343 </weight>
<weight id="7044"> lhapdf=25344 </weight>
<weight id="7045"> lhapdf=25345 </weight>
<weight id="7046"> lhapdf=25346 </weight>
<weight id="7047"> lhapdf=25347 </weight>
<weight id="7048"> lhapdf=25348 </weight>
<weight id="7049"> lhapdf=25349 </weight>
<weight id="7050"> lhapdf=25350 </weight>
<weight id="7060"> lhapdf=25000 </weight>
<weight id="8000"> lhapdf=42780 </weight>
<weight id="8001"> lhapdf=42781 </weight>
<weight id="8002"> lhapdf=42782 </weight>
<weight id="8003"> lhapdf=42783 </weight>
<weight id="8004"> lhapdf=42784 </weight>
<weight id="8005"> lhapdf=42785 </weight>
<weight id="8006"> lhapdf=42786 </weight>
<weight id="8007"> lhapdf=42787 </weight>
<weight id="8008"> lhapdf=42788 </weight>
<weight id="8009"> lhapdf=42789 </weight>
<weight id="8010"> lhapdf=42790 </weight>
<weight id="8011"> lhapdf=42791 </weight>
<weight id="8012"> lhapdf=42792 </weight>
<weight id="8013"> lhapdf=42793 </weight>
<weight id="8014"> lhapdf=42794 </weight>
<weight id="8015"> lhapdf=42795 </weight>
<weight id="8016"> lhapdf=42796 </weight>
<weight id="8017"> lhapdf=42797 </weight>
<weight id="8018"> lhapdf=42798 </weight>
<weight id="8019"> lhapdf=42799 </weight>
<weight id="8020"> lhapdf=42800 </weight>
<weight id="8021"> lhapdf=42801 </weight>
<weight id="8022"> lhapdf=42802 </weight>
<weight id="8023"> lhapdf=42803 </weight>
<weight id="8024"> lhapdf=42804 </weight>
<weight id="8025"> lhapdf=42805 </weight>
<weight id="8026"> lhapdf=42806 </weight>
<weight id="8027"> lhapdf=42807 </weight>
<weight id="8028"> lhapdf=42808 </weight>
<weight id="8029"> lhapdf=42809 </weight>
<weight id="8500"> lhapdf=90200 </weight>
<weight id="8501"> lhapdf=90201 </weight>
<weight id="8502"> lhapdf=90202 </weight>
<weight id="8503"> lhapdf=90203 </weight>
<weight id="8504"> lhapdf=90204 </weight>
<weight id="8505"> lhapdf=90205 </weight>
<weight id="8506"> lhapdf=90206 </weight>
<weight id="8507"> lhapdf=90207 </weight>
<weight id="8508"> lhapdf=90208 </weight>
<weight id="8509"> lhapdf=90209 </weight>
<weight id="8510"> lhapdf=90210 </weight>
<weight id="8511"> lhapdf=90211 </weight>
<weight id="8512"> lhapdf=90212 </weight>
<weight id="8513"> lhapdf=90213 </weight>
<weight id="8514"> lhapdf=90214 </weight>
<weight id="8515"> lhapdf=90215 </weight>
<weight id="8516"> lhapdf=90216 </weight>
<weight id="8517"> lhapdf=90217 </weight>
<weight id="8518"> lhapdf=90218 </weight>
<weight id="8519"> lhapdf=90219 </weight>
<weight id="8520"> lhapdf=90220 </weight>
<weight id="8521"> lhapdf=90221 </weight>
<weight id="8522"> lhapdf=90222 </weight>
<weight id="8523"> lhapdf=90223 </weight>
<weight id="8524"> lhapdf=90224 </weight>
<weight id="8525"> lhapdf=90225 </weight>
<weight id="8526"> lhapdf=90226 </weight>
<weight id="8527"> lhapdf=90227 </weight>
<weight id="8528"> lhapdf=90228 </weight>
<weight id="8529"> lhapdf=90229 </weight>
<weight id="8530"> lhapdf=90230 </weight>
<weight id="8531"> lhapdf=90231 </weight>
<weight id="8532"> lhapdf=90232 </weight>
<weight id="8533"> lhapdf=90233 </weight>
<weight id="8534"> lhapdf=90234 </weight>
<weight id="8535"> lhapdf=90235 </weight>
<weight id="8536"> lhapdf=90236 </weight>
<weight id="8537"> lhapdf=90237 </weight>
<weight id="8538"> lhapdf=90238 </weight>
<weight id="8539"> lhapdf=90239 </weight>
<weight id="8540"> lhapdf=90240 </weight>
<weight id="8541"> lhapdf=90241 </weight>
<weight id="8542"> lhapdf=90242 </weight>
<weight id="8543"> lhapdf=90243 </weight>
<weight id="8544"> lhapdf=90244 </weight>
<weight id="8545"> lhapdf=90245 </weight>
<weight id="8546"> lhapdf=90246 </weight>
<weight id="8547"> lhapdf=90247 </weight>
<weight id="8548"> lhapdf=90248 </weight>
<weight id="8549"> lhapdf=90249 </weight>
<weight id="8550"> lhapdf=90250 </weight>
<weight id="8551"> lhapdf=90251 </weight>
<weight id="8552"> lhapdf=90252 </weight>
<weight id="8553"> lhapdf=90253 </weight>
<weight id="8554"> lhapdf=90254 </weight>
<weight id="8555"> lhapdf=90255 </weight>
<weight id="8556"> lhapdf=90256 </weight>
<weight id="8557"> lhapdf=90257 </weight>
<weight id="8558"> lhapdf=90258 </weight>
<weight id="8559"> lhapdf=90259 </weight>
<weight id="8560"> lhapdf=90260 </weight>
<weight id="8561"> lhapdf=90261 </weight>
<weight id="8562"> lhapdf=90262 </weight>
<weight id="8563"> lhapdf=90263 </weight>
<weight id="8564"> lhapdf=90264 </weight>
<weight id="8565"> lhapdf=90265 </weight>
<weight id="8566"> lhapdf=90266 </weight>
<weight id="8567"> lhapdf=90267 </weight>
<weight id="8568"> lhapdf=90268 </weight>
<weight id="8569"> lhapdf=90269 </weight>
<weight id="8570"> lhapdf=90270 </weight>
<weight id="8571"> lhapdf=90271 </weight>
<weight id="8572"> lhapdf=90272 </weight>
<weight id="8573"> lhapdf=90273 </weight>
<weight id="8574"> lhapdf=90274 </weight>
<weight id="8575"> lhapdf=90275 </weight>
<weight id="8576"> lhapdf=90276 </weight>
<weight id="8577"> lhapdf=90277 </weight>
<weight id="8578"> lhapdf=90278 </weight>
<weight id="8579"> lhapdf=90279 </weight>
<weight id="8580"> lhapdf=90280 </weight>
<weight id="8581"> lhapdf=90281 </weight>
<weight id="8582"> lhapdf=90282 </weight>
<weight id="8583"> lhapdf=90283 </weight>
<weight id="8584"> lhapdf=90284 </weight>
<weight id="8585"> lhapdf=90285 </weight>
<weight id="8586"> lhapdf=90286 </weight>
<weight id="8587"> lhapdf=90287 </weight>
<weight id="8588"> lhapdf=90288 </weight>
<weight id="8589"> lhapdf=90289 </weight>
<weight id="8590"> lhapdf=90290 </weight>
<weight id="8591"> lhapdf=90291 </weight>
<weight id="8592"> lhapdf=90292 </weight>
<weight id="8593"> lhapdf=90293 </weight>
<weight id="8594"> lhapdf=90294 </weight>
<weight id="8595"> lhapdf=90295 </weight>
<weight id="8596"> lhapdf=90296 </weight>
<weight id="8597"> lhapdf=90297 </weight>
<weight id="8598"> lhapdf=90298 </weight>
<weight id="8599"> lhapdf=90299 </weight>
<weight id="8600"> lhapdf=90300 </weight>
<weight id="8601"> lhapdf=90301 </weight>
<weight id="8602"> lhapdf=90302 </weight>
<weight id="9000"> lhapdf=91200 </weight>
<weight id="9001"> lhapdf=91201 </weight>
<weight id="9002"> lhapdf=91202 </weight>
<weight id="9003"> lhapdf=91203 </weight>
<weight id="9004"> lhapdf=91204 </weight>
<weight id="9005"> lhapdf=91205 </weight>
<weight id="9006"> lhapdf=91206 </weight>
<weight id="9007"> lhapdf=91207 </weight>
<weight id="9008"> lhapdf=91208 </weight>
<weight id="9009"> lhapdf=91209 </weight>
<weight id="9010"> lhapdf=91210 </weight>
<weight id="9011"> lhapdf=91211 </weight>
<weight id="9012"> lhapdf=91212 </weight>
<weight id="9013"> lhapdf=91213 </weight>
<weight id="9014"> lhapdf=91214 </weight>
<weight id="9015"> lhapdf=91215 </weight>
<weight id="9016"> lhapdf=91216 </weight>
<weight id="9017"> lhapdf=91217 </weight>
<weight id="9018"> lhapdf=91218 </weight>
<weight id="9019"> lhapdf=91219 </weight>
<weight id="9020"> lhapdf=91220 </weight>
<weight id="9021"> lhapdf=91221 </weight>
<weight id="9022"> lhapdf=91222 </weight>
<weight id="9023"> lhapdf=91223 </weight>
<weight id="9024"> lhapdf=91224 </weight>
<weight id="9025"> lhapdf=91225 </weight>
<weight id="9026"> lhapdf=91226 </weight>
<weight id="9027"> lhapdf=91227 </weight>
<weight id="9028"> lhapdf=91228 </weight>
<weight id="9029"> lhapdf=91229 </weight>
<weight id="9030"> lhapdf=91230 </weight>
<weight id="9031"> lhapdf=91231 </weight>
<weight id="9032"> lhapdf=91232 </weight>
<weight id="9033"> lhapdf=91233 </weight>
<weight id="9034"> lhapdf=91234 </weight>
<weight id="9035"> lhapdf=91235 </weight>
<weight id="9036"> lhapdf=91236 </weight>
<weight id="9037"> lhapdf=91237 </weight>
<weight id="9038"> lhapdf=91238 </weight>
<weight id="9039"> lhapdf=91239 </weight>
<weight id="9040"> lhapdf=91240 </weight>
<weight id="9041"> lhapdf=91241 </weight>
<weight id="9042"> lhapdf=91242 </weight>
<weight id="9043"> lhapdf=91243 </weight>
<weight id="9044"> lhapdf=91244 </weight>
<weight id="9045"> lhapdf=91245 </weight>
<weight id="9046"> lhapdf=91246 </weight>
<weight id="9047"> lhapdf=91247 </weight>
<weight id="9048"> lhapdf=91248 </weight>
<weight id="9049"> lhapdf=91249 </weight>
<weight id="9050"> lhapdf=91250 </weight>
<weight id="9051"> lhapdf=91251 </weight>
<weight id="9052"> lhapdf=91252 </weight>
<weight id="9053"> lhapdf=91253 </weight>
<weight id="9054"> lhapdf=91254 </weight>
<weight id="9055"> lhapdf=91255 </weight>
<weight id="9056"> lhapdf=91256 </weight>
<weight id="9057"> lhapdf=91257 </weight>
<weight id="9058"> lhapdf=91258 </weight>
<weight id="9059"> lhapdf=91259 </weight>
<weight id="9060"> lhapdf=91260 </weight>
<weight id="9061"> lhapdf=91261 </weight>
<weight id="9062"> lhapdf=91262 </weight>
<weight id="9063"> lhapdf=91263 </weight>
<weight id="9064"> lhapdf=91264 </weight>
<weight id="9065"> lhapdf=91265 </weight>
<weight id="9066"> lhapdf=91266 </weight>
<weight id="9067"> lhapdf=91267 </weight>
<weight id="9068"> lhapdf=91268 </weight>
<weight id="9069"> lhapdf=91269 </weight>
<weight id="9070"> lhapdf=91270 </weight>
<weight id="9071"> lhapdf=91271 </weight>
<weight id="9072"> lhapdf=91272 </weight>
<weight id="9073"> lhapdf=91273 </weight>
<weight id="9074"> lhapdf=91274 </weight>
<weight id="9075"> lhapdf=91275 </weight>
<weight id="9076"> lhapdf=91276 </weight>
<weight id="9077"> lhapdf=91277 </weight>
<weight id="9078"> lhapdf=91278 </weight>
<weight id="9079"> lhapdf=91279 </weight>
<weight id="9080"> lhapdf=91280 </weight>
<weight id="9081"> lhapdf=91281 </weight>
<weight id="9082"> lhapdf=91282 </weight>
<weight id="9083"> lhapdf=91283 </weight>
<weight id="9084"> lhapdf=91284 </weight>
<weight id="9085"> lhapdf=91285 </weight>
<weight id="9086"> lhapdf=91286 </weight>
<weight id="9087"> lhapdf=91287 </weight>
<weight id="9088"> lhapdf=91288 </weight>
<weight id="9089"> lhapdf=91289 </weight>
<weight id="9090"> lhapdf=91290 </weight>
<weight id="9091"> lhapdf=91291 </weight>
<weight id="9092"> lhapdf=91292 </weight>
<weight id="9093"> lhapdf=91293 </weight>
<weight id="9094"> lhapdf=91294 </weight>
<weight id="9095"> lhapdf=91295 </weight>
<weight id="9096"> lhapdf=91296 </weight>
<weight id="9097"> lhapdf=91297 </weight>
<weight id="9098"> lhapdf=91298 </weight>
<weight id="9099"> lhapdf=91299 </weight>
<weight id="9100"> lhapdf=91300 </weight>
<weight id="9101"> lhapdf=91301 </weight>
<weight id="9102"> lhapdf=91302 </weight>
<weight id="10000"> lhapdf=90400 </weight>
<weight id="10001"> lhapdf=90401 </weight>
<weight id="10002"> lhapdf=90402 </weight>
<weight id="10003"> lhapdf=90403 </weight>
<weight id="10004"> lhapdf=90404 </weight>
<weight id="10005"> lhapdf=90405 </weight>
<weight id="10006"> lhapdf=90406 </weight>
<weight id="10007"> lhapdf=90407 </weight>
<weight id="10008"> lhapdf=90408 </weight>
<weight id="10009"> lhapdf=90409 </weight>
<weight id="10010"> lhapdf=90410 </weight>
<weight id="10011"> lhapdf=90411 </weight>
<weight id="10012"> lhapdf=90412 </weight>
<weight id="10013"> lhapdf=90413 </weight>
<weight id="10014"> lhapdf=90414 </weight>
<weight id="10015"> lhapdf=90415 </weight>
<weight id="10016"> lhapdf=90416 </weight>
<weight id="10017"> lhapdf=90417 </weight>
<weight id="10018"> lhapdf=90418 </weight>
<weight id="10019"> lhapdf=90419 </weight>
<weight id="10020"> lhapdf=90420 </weight>
<weight id="10021"> lhapdf=90421 </weight>
<weight id="10022"> lhapdf=90422 </weight>
<weight id="10023"> lhapdf=90423 </weight>
<weight id="10024"> lhapdf=90424 </weight>
<weight id="10025"> lhapdf=90425 </weight>
<weight id="10026"> lhapdf=90426 </weight>
<weight id="10027"> lhapdf=90427 </weight>
<weight id="10028"> lhapdf=90428 </weight>
<weight id="10029"> lhapdf=90429 </weight>
<weight id="10030"> lhapdf=90430 </weight>
<weight id="10031"> lhapdf=90431 </weight>
<weight id="10032"> lhapdf=90432 </weight>
<weight id="11000"> lhapdf=91400 </weight>
<weight id="11001"> lhapdf=91401 </weight>
<weight id="11002"> lhapdf=91402 </weight>
<weight id="11003"> lhapdf=91403 </weight>
<weight id="11004"> lhapdf=91404 </weight>
<weight id="11005"> lhapdf=91405 </weight>
<weight id="11006"> lhapdf=91406 </weight>
<weight id="11007"> lhapdf=91407 </weight>
<weight id="11008"> lhapdf=91408 </weight>
<weight id="11009"> lhapdf=91409 </weight>
<weight id="11010"> lhapdf=91410 </weight>
<weight id="11011"> lhapdf=91411 </weight>
<weight id="11012"> lhapdf=91412 </weight>
<weight id="11013"> lhapdf=91413 </weight>
<weight id="11014"> lhapdf=91414 </weight>
<weight id="11015"> lhapdf=91415 </weight>
<weight id="11016"> lhapdf=91416 </weight>
<weight id="11017"> lhapdf=91417 </weight>
<weight id="11018"> lhapdf=91418 </weight>
<weight id="11019"> lhapdf=91419 </weight>
<weight id="11020"> lhapdf=91420 </weight>
<weight id="11021"> lhapdf=91421 </weight>
<weight id="11022"> lhapdf=91422 </weight>
<weight id="11023"> lhapdf=91423 </weight>
<weight id="11024"> lhapdf=91424 </weight>
<weight id="11025"> lhapdf=91425 </weight>
<weight id="11026"> lhapdf=91426 </weight>
<weight id="11027"> lhapdf=91427 </weight>
<weight id="11028"> lhapdf=91428 </weight>
<weight id="11029"> lhapdf=91429 </weight>
<weight id="11030"> lhapdf=91430 </weight>
<weight id="11031"> lhapdf=91431 </weight>
<weight id="11032"> lhapdf=91432 </weight>
<weight id="12000"> lhapdf=61100 </weight>
<weight id="12001"> lhapdf=61101 </weight>
<weight id="12002"> lhapdf=61102 </weight>
<weight id="12003"> lhapdf=61103 </weight>
<weight id="12004"> lhapdf=61104 </weight>
<weight id="12005"> lhapdf=61105 </weight>
<weight id="12006"> lhapdf=61106 </weight>
<weight id="12007"> lhapdf=61107 </weight>
<weight id="12008"> lhapdf=61108 </weight>
<weight id="12009"> lhapdf=61109 </weight>
<weight id="12010"> lhapdf=61110 </weight>
<weight id="12011"> lhapdf=61111 </weight>
<weight id="12012"> lhapdf=61112 </weight>
<weight id="12013"> lhapdf=61113 </weight>
<weight id="12014"> lhapdf=61114 </weight>
<weight id="12015"> lhapdf=61115 </weight>
<weight id="12016"> lhapdf=61116 </weight>
<weight id="12017"> lhapdf=61117 </weight>
<weight id="12018"> lhapdf=61118 </weight>
<weight id="12019"> lhapdf=61119 </weight>
<weight id="12020"> lhapdf=61120 </weight>
<weight id="12021"> lhapdf=61121 </weight>
<weight id="12022"> lhapdf=61122 </weight>
<weight id="12023"> lhapdf=61123 </weight>
<weight id="12024"> lhapdf=61124 </weight>
<weight id="12025"> lhapdf=61125 </weight>
<weight id="12026"> lhapdf=61126 </weight>
<weight id="12027"> lhapdf=61127 </weight>
<weight id="12028"> lhapdf=61128 </weight>
<weight id="12050"> lhapdf=61130 </weight>
<weight id="12051"> lhapdf=61131 </weight>
<weight id="12052"> lhapdf=61132 </weight>
<weight id="12053"> lhapdf=61133 </weight>
<weight id="12054"> lhapdf=61134 </weight>
<weight id="12055"> lhapdf=61135 </weight>
<weight id="12056"> lhapdf=61136 </weight>
<weight id="12057"> lhapdf=61137 </weight>
<weight id="12058"> lhapdf=61138 </weight>
<weight id="12059"> lhapdf=61139 </weight>
<weight id="12060"> lhapdf=61140 </weight>
<weight id="12061"> lhapdf=61141 </weight>
<weight id="12062"> lhapdf=61142 </weight>
<weight id="12063"> lhapdf=61143 </weight>
<weight id="13000"> lhapdf=61200 </weight>
<weight id="13001"> lhapdf=61201 </weight>
<weight id="13002"> lhapdf=61202 </weight>
<weight id="13003"> lhapdf=61203 </weight>
<weight id="13004"> lhapdf=61204 </weight>
<weight id="13005"> lhapdf=61205 </weight>
<weight id="13006"> lhapdf=61206 </weight>
<weight id="13007"> lhapdf=61207 </weight>
<weight id="13008"> lhapdf=61208 </weight>
<weight id="13009"> lhapdf=61209 </weight>
<weight id="13010"> lhapdf=61210 </weight>
<weight id="13011"> lhapdf=61211 </weight>
<weight id="13012"> lhapdf=61212 </weight>
<weight id="13013"> lhapdf=61213 </weight>
<weight id="13014"> lhapdf=61214 </weight>
<weight id="13015"> lhapdf=61215 </weight>
<weight id="13016"> lhapdf=61216 </weight>
<weight id="13017"> lhapdf=61217 </weight>
<weight id="13018"> lhapdf=61218 </weight>
<weight id="13019"> lhapdf=61219 </weight>
<weight id="13020"> lhapdf=61220 </weight>
<weight id="13021"> lhapdf=61221 </weight>
<weight id="13022"> lhapdf=61222 </weight>
<weight id="13023"> lhapdf=61223 </weight>
<weight id="13024"> lhapdf=61224 </weight>
<weight id="13025"> lhapdf=61225 </weight>
<weight id="13026"> lhapdf=61226 </weight>
<weight id="13027"> lhapdf=61227 </weight>
<weight id="13028"> lhapdf=61228 </weight>
<weight id="13050"> lhapdf=61230 </weight>
<weight id="13051"> lhapdf=61231 </weight>
<weight id="13052"> lhapdf=61232 </weight>
<weight id="13053"> lhapdf=61233 </weight>
<weight id="13054"> lhapdf=61234 </weight>
<weight id="13055"> lhapdf=61235 </weight>
<weight id="13056"> lhapdf=61236 </weight>
<weight id="13057"> lhapdf=61237 </weight>
<weight id="13058"> lhapdf=61238 </weight>
<weight id="13059"> lhapdf=61239 </weight>
<weight id="13060"> lhapdf=61240 </weight>
<weight id="13061"> lhapdf=61241 </weight>
<weight id="13062"> lhapdf=61242 </weight>
<weight id="13063"> lhapdf=61243 </weight>
<weight id="14000"> lhapdf=13400 </weight>
<weight id="14001"> lhapdf=13401 </weight>
<weight id="14002"> lhapdf=13402 </weight>
<weight id="14003"> lhapdf=13403 </weight>
<weight id="14004"> lhapdf=13404 </weight>
<weight id="14005"> lhapdf=13405 </weight>
<weight id="14006"> lhapdf=13406 </weight>
<weight id="14007"> lhapdf=13407 </weight>
<weight id="14008"> lhapdf=13408 </weight>
<weight id="14009"> lhapdf=13409 </weight>
<weight id="14010"> lhapdf=13410 </weight>
<weight id="14011"> lhapdf=13411 </weight>
<weight id="14012"> lhapdf=13412 </weight>
<weight id="14013"> lhapdf=13413 </weight>
<weight id="14014"> lhapdf=13414 </weight>
<weight id="14015"> lhapdf=13415 </weight>
<weight id="14016"> lhapdf=13416 </weight>
<weight id="14017"> lhapdf=13417 </weight>
<weight id="14018"> lhapdf=13418 </weight>
<weight id="14019"> lhapdf=13419 </weight>
<weight id="14020"> lhapdf=13420 </weight>
<weight id="14021"> lhapdf=13421 </weight>
<weight id="14022"> lhapdf=13422 </weight>
<weight id="14023"> lhapdf=13423 </weight>
<weight id="14024"> lhapdf=13424 </weight>
<weight id="14025"> lhapdf=13425 </weight>
<weight id="14026"> lhapdf=13426 </weight>
<weight id="14027"> lhapdf=13427 </weight>
<weight id="14028"> lhapdf=13428 </weight>
<weight id="14029"> lhapdf=13429 </weight>
<weight id="14030"> lhapdf=13430 </weight>
<weight id="15000"> lhapdf=82200 </weight>
<weight id="15001"> lhapdf=82201 </weight>
<weight id="15002"> lhapdf=82202 </weight>
<weight id="15003"> lhapdf=82203 </weight>
<weight id="15004"> lhapdf=82204 </weight>
<weight id="15005"> lhapdf=82205 </weight>
<weight id="15006"> lhapdf=82206 </weight>
<weight id="15007"> lhapdf=82207 </weight>
<weight id="15008"> lhapdf=82208 </weight>
<weight id="15009"> lhapdf=82209 </weight>
<weight id="15010"> lhapdf=82210 </weight>
<weight id="15011"> lhapdf=82211 </weight>
<weight id="15012"> lhapdf=82212 </weight>
<weight id="15013"> lhapdf=82213 </weight>
<weight id="15014"> lhapdf=82214 </weight>
<weight id="15015"> lhapdf=82215 </weight>
<weight id="15016"> lhapdf=82216 </weight>
<weight id="15017"> lhapdf=82217 </weight>
<weight id="15018"> lhapdf=82218 </weight>
<weight id="15019"> lhapdf=82219 </weight>
<weight id="15020"> lhapdf=82220 </weight>
<weight id="15021"> lhapdf=82221 </weight>
<weight id="15022"> lhapdf=82222 </weight>
<weight id="15023"> lhapdf=82223 </weight>
<weight id="15024"> lhapdf=82224 </weight>
<weight id="15025"> lhapdf=82225 </weight>
<weight id="15026"> lhapdf=82226 </weight>
<weight id="15027"> lhapdf=82227 </weight>
<weight id="15028"> lhapdf=82228 </weight>
<weight id="15029"> lhapdf=82229 </weight>
<weight id="15030"> lhapdf=82230 </weight>
<weight id="15031"> lhapdf=82231 </weight>
<weight id="15032"> lhapdf=82232 </weight>
<weight id="15033"> lhapdf=82233 </weight>
<weight id="15034"> lhapdf=82234 </weight>
<weight id="15035"> lhapdf=82235 </weight>
<weight id="15036"> lhapdf=82236 </weight>
<weight id="15037"> lhapdf=82237 </weight>
<weight id="15038"> lhapdf=82238 </weight>
<weight id="15039"> lhapdf=82239 </weight>
<weight id="15040"> lhapdf=82240 </weight>
<weight id="15041"> lhapdf=82241 </weight>
<weight id="15042"> lhapdf=82242 </weight>
<weight id="15043"> lhapdf=82243 </weight>
<weight id="15044"> lhapdf=82244 </weight>
<weight id="15045"> lhapdf=82245 </weight>
<weight id="15046"> lhapdf=82246 </weight>
<weight id="15047"> lhapdf=82247 </weight>
<weight id="15048"> lhapdf=82248 </weight>
<weight id="15049"> lhapdf=82249 </weight>
<weight id="15050"> lhapdf=82250 </weight>
<weight id="15051"> lhapdf=82251 </weight>
<weight id="15052"> lhapdf=82252 </weight>
<weight id="15053"> lhapdf=82253 </weight>
<weight id="15054"> lhapdf=82254 </weight>
<weight id="15055"> lhapdf=82255 </weight>
<weight id="15056"> lhapdf=82256 </weight>
<weight id="15057"> lhapdf=82257 </weight>
<weight id="15058"> lhapdf=82258 </weight>
<weight id="15059"> lhapdf=82259 </weight>
<weight id="15060"> lhapdf=82260 </weight>
<weight id="15061"> lhapdf=82261 </weight>
<weight id="15062"> lhapdf=82262 </weight>
<weight id="15063"> lhapdf=82263 </weight>
<weight id="15064"> lhapdf=82264 </weight>
<weight id="15065"> lhapdf=82265 </weight>
<weight id="15066"> lhapdf=82266 </weight>
<weight id="15067"> lhapdf=82267 </weight>
<weight id="15068"> lhapdf=82268 </weight>
<weight id="15069"> lhapdf=82269 </weight>
<weight id="15070"> lhapdf=82270 </weight>
<weight id="15071"> lhapdf=82271 </weight>
<weight id="15072"> lhapdf=82272 </weight>
<weight id="15073"> lhapdf=82273 </weight>
<weight id="15074"> lhapdf=82274 </weight>
<weight id="15075"> lhapdf=82275 </weight>
<weight id="15076"> lhapdf=82276 </weight>
<weight id="15077"> lhapdf=82277 </weight>
<weight id="15078"> lhapdf=82278 </weight>
<weight id="15079"> lhapdf=82279 </weight>
<weight id="15080"> lhapdf=82280 </weight>
<weight id="15081"> lhapdf=82281 </weight>
<weight id="15082"> lhapdf=82282 </weight>
<weight id="15083"> lhapdf=82283 </weight>
<weight id="15084"> lhapdf=82284 </weight>
<weight id="15085"> lhapdf=82285 </weight>
<weight id="15086"> lhapdf=82286 </weight>
<weight id="15087"> lhapdf=82287 </weight>
<weight id="15088"> lhapdf=82288 </weight>
<weight id="15089"> lhapdf=82289 </weight>
<weight id="15090"> lhapdf=82290 </weight>
<weight id="15091"> lhapdf=82291 </weight>
<weight id="15092"> lhapdf=82292 </weight>
<weight id="15093"> lhapdf=82293 </weight>
<weight id="15094"> lhapdf=82294 </weight>
<weight id="15095"> lhapdf=82295 </weight>
<weight id="15096"> lhapdf=82296 </weight>
<weight id="15097"> lhapdf=82297 </weight>
<weight id="15098"> lhapdf=82298 </weight>
<weight id="15099"> lhapdf=82299 </weight>
<weight id="15100"> lhapdf=82300 </weight>
<weight id="15101"> lhapdf=82301 </weight>
<weight id="15102"> lhapdf=82302 </weight>
<weight id="15103"> lhapdf=82303 </weight>
<weight id="15104"> lhapdf=82304 </weight>
<weight id="15105"> lhapdf=82305 </weight>
<weight id="15106"> lhapdf=82306 </weight>
<weight id="15107"> lhapdf=82307 </weight>
</weightgroup>
<weightgroup combine="replica" name="PDF_variation2">
<weight id="3400"> lhapdf=316200 </weight>
<weight id="3401"> lhapdf=316201 </weight>
<weight id="3402"> lhapdf=316202 </weight>
<weight id="3403"> lhapdf=316203 </weight>
<weight id="3404"> lhapdf=316204 </weight>
<weight id="3405"> lhapdf=316205 </weight>
<weight id="3406"> lhapdf=316206 </weight>
<weight id="3407"> lhapdf=316207 </weight>
<weight id="3408"> lhapdf=316208 </weight>
<weight id="3409"> lhapdf=316209 </weight>
<weight id="3410"> lhapdf=316210 </weight>
<weight id="3411"> lhapdf=316211 </weight>
<weight id="3412"> lhapdf=316212 </weight>
<weight id="3413"> lhapdf=316213 </weight>
<weight id="3414"> lhapdf=316214 </weight>
<weight id="3415"> lhapdf=316215 </weight>
<weight id="3416"> lhapdf=316216 </weight>
<weight id="3417"> lhapdf=316217 </weight>
<weight id="3418"> lhapdf=316218 </weight>
<weight id="3419"> lhapdf=316219 </weight>
<weight id="3420"> lhapdf=316220 </weight>
<weight id="3421"> lhapdf=316221 </weight>
<weight id="3422"> lhapdf=316222 </weight>
<weight id="3423"> lhapdf=316223 </weight>
<weight id="3424"> lhapdf=316224 </weight>
<weight id="3425"> lhapdf=316225 </weight>
<weight id="3426"> lhapdf=316226 </weight>
<weight id="3427"> lhapdf=316227 </weight>
<weight id="3428"> lhapdf=316228 </weight>
<weight id="3429"> lhapdf=316229 </weight>
<weight id="3430"> lhapdf=316230 </weight>
<weight id="3431"> lhapdf=316231 </weight>
<weight id="3432"> lhapdf=316232 </weight>
<weight id="3433"> lhapdf=316233 </weight>
<weight id="3434"> lhapdf=316234 </weight>
<weight id="3435"> lhapdf=316235 </weight>
<weight id="3436"> lhapdf=316236 </weight>
<weight id="3437"> lhapdf=316237 </weight>
<weight id="3438"> lhapdf=316238 </weight>
<weight id="3439"> lhapdf=316239 </weight>
<weight id="3440"> lhapdf=316240 </weight>
<weight id="3441"> lhapdf=316241 </weight>
<weight id="3442"> lhapdf=316242 </weight>
<weight id="3443"> lhapdf=316243 </weight>
<weight id="3444"> lhapdf=316244 </weight>
<weight id="3445"> lhapdf=316245 </weight>
<weight id="3446"> lhapdf=316246 </weight>
<weight id="3447"> lhapdf=316247 </weight>
<weight id="3448"> lhapdf=316248 </weight>
<weight id="3449"> lhapdf=316249 </weight>
<weight id="3450"> lhapdf=316250 </weight>
<weight id="3451"> lhapdf=316251 </weight>
<weight id="3452"> lhapdf=316252 </weight>
<weight id="3453"> lhapdf=316253 </weight>
<weight id="3454"> lhapdf=316254 </weight>
<weight id="3455"> lhapdf=316255 </weight>
<weight id="3456"> lhapdf=316256 </weight>
<weight id="3457"> lhapdf=316257 </weight>
<weight id="3458"> lhapdf=316258 </weight>
<weight id="3459"> lhapdf=316259 </weight>
<weight id="3460"> lhapdf=316260 </weight>
<weight id="3461"> lhapdf=316261 </weight>
<weight id="3462"> lhapdf=316262 </weight>
<weight id="3463"> lhapdf=316263 </weight>
<weight id="3464"> lhapdf=316264 </weight>
<weight id="3465"> lhapdf=316265 </weight>
<weight id="3466"> lhapdf=316266 </weight>
<weight id="3467"> lhapdf=316267 </weight>
<weight id="3468"> lhapdf=316268 </weight>
<weight id="3469"> lhapdf=316269 </weight>
<weight id="3470"> lhapdf=316270 </weight>
<weight id="3471"> lhapdf=316271 </weight>
<weight id="3472"> lhapdf=316272 </weight>
<weight id="3473"> lhapdf=316273 </weight>
<weight id="3474"> lhapdf=316274 </weight>
<weight id="3475"> lhapdf=316275 </weight>
<weight id="3476"> lhapdf=316276 </weight>
<weight id="3477"> lhapdf=316277 </weight>
<weight id="3478"> lhapdf=316278 </weight>
<weight id="3479"> lhapdf=316279 </weight>
<weight id="3480"> lhapdf=316280 </weight>
<weight id="3481"> lhapdf=316281 </weight>
<weight id="3482"> lhapdf=316282 </weight>
<weight id="3483"> lhapdf=316283 </weight>
<weight id="3484"> lhapdf=316284 </weight>
<weight id="3485"> lhapdf=316285 </weight>
<weight id="3486"> lhapdf=316286 </weight>
<weight id="3487"> lhapdf=316287 </weight>
<weight id="3488"> lhapdf=316288 </weight>
<weight id="3489"> lhapdf=316289 </weight>
<weight id="3490"> lhapdf=316290 </weight>
<weight id="3491"> lhapdf=316291 </weight>
<weight id="3492"> lhapdf=316292 </weight>
<weight id="3493"> lhapdf=316293 </weight>
<weight id="3494"> lhapdf=316294 </weight>
<weight id="3495"> lhapdf=316295 </weight>
<weight id="3496"> lhapdf=316296 </weight>
<weight id="3497"> lhapdf=316297 </weight>
<weight id="3498"> lhapdf=316298 </weight>
<weight id="3499"> lhapdf=316299 </weight>
<weight id="3500"> lhapdf=316300 </weight>
<weight id="1500"> lhapdf=292200 </weight>
<weight id="1501"> lhapdf=292201 </weight>
<weight id="1502"> lhapdf=292202 </weight>
<weight id="1503"> lhapdf=292203 </weight>
<weight id="1504"> lhapdf=292204 </weight>
<weight id="1505"> lhapdf=292205 </weight>
<weight id="1506"> lhapdf=292206 </weight>
<weight id="1507"> lhapdf=292207 </weight>
<weight id="1508"> lhapdf=292208 </weight>
<weight id="1509"> lhapdf=292209 </weight>
<weight id="1510"> lhapdf=292210 </weight>
<weight id="1511"> lhapdf=292211 </weight>
<weight id="1512"> lhapdf=292212 </weight>
<weight id="1513"> lhapdf=292213 </weight>
<weight id="1514"> lhapdf=292214 </weight>
<weight id="1515"> lhapdf=292215 </weight>
<weight id="1516"> lhapdf=292216 </weight>
<weight id="1517"> lhapdf=292217 </weight>
<weight id="1518"> lhapdf=292218 </weight>
<weight id="1519"> lhapdf=292219 </weight>
<weight id="1520"> lhapdf=292220 </weight>
<weight id="1521"> lhapdf=292221 </weight>
<weight id="1522"> lhapdf=292222 </weight>
<weight id="1523"> lhapdf=292223 </weight>
<weight id="1524"> lhapdf=292224 </weight>
<weight id="1525"> lhapdf=292225 </weight>
<weight id="1526"> lhapdf=292226 </weight>
<weight id="1527"> lhapdf=292227 </weight>
<weight id="1528"> lhapdf=292228 </weight>
<weight id="1529"> lhapdf=292229 </weight>
<weight id="1530"> lhapdf=292230 </weight>
<weight id="1531"> lhapdf=292231 </weight>
<weight id="1532"> lhapdf=292232 </weight>
<weight id="1533"> lhapdf=292233 </weight>
<weight id="1534"> lhapdf=292234 </weight>
<weight id="1535"> lhapdf=292235 </weight>
<weight id="1536"> lhapdf=292236 </weight>
<weight id="1537"> lhapdf=292237 </weight>
<weight id="1538"> lhapdf=292238 </weight>
<weight id="1539"> lhapdf=292239 </weight>
<weight id="1540"> lhapdf=292240 </weight>
<weight id="1541"> lhapdf=292241 </weight>
<weight id="1542"> lhapdf=292242 </weight>
<weight id="1543"> lhapdf=292243 </weight>
<weight id="1544"> lhapdf=292244 </weight>
<weight id="1545"> lhapdf=292245 </weight>
<weight id="1546"> lhapdf=292246 </weight>
<weight id="1547"> lhapdf=292247 </weight>
<weight id="1548"> lhapdf=292248 </weight>
<weight id="1549"> lhapdf=292249 </weight>
<weight id="1550"> lhapdf=292250 </weight>
<weight id="1551"> lhapdf=292251 </weight>
<weight id="1552"> lhapdf=292252 </weight>
<weight id="1553"> lhapdf=292253 </weight>
<weight id="1554"> lhapdf=292254 </weight>
<weight id="1555"> lhapdf=292255 </weight>
<weight id="1556"> lhapdf=292256 </weight>
<weight id="1557"> lhapdf=292257 </weight>
<weight id="1558"> lhapdf=292258 </weight>
<weight id="1559"> lhapdf=292259 </weight>
<weight id="1560"> lhapdf=292260 </weight>
<weight id="1561"> lhapdf=292261 </weight>
<weight id="1562"> lhapdf=292262 </weight>
<weight id="1563"> lhapdf=292263 </weight>
<weight id="1564"> lhapdf=292264 </weight>
<weight id="1565"> lhapdf=292265 </weight>
<weight id="1566"> lhapdf=292266 </weight>
<weight id="1567"> lhapdf=292267 </weight>
<weight id="1568"> lhapdf=292268 </weight>
<weight id="1569"> lhapdf=292269 </weight>
<weight id="1570"> lhapdf=292270 </weight>
<weight id="1571"> lhapdf=292271 </weight>
<weight id="1572"> lhapdf=292272 </weight>
<weight id="1573"> lhapdf=292273 </weight>
<weight id="1574"> lhapdf=292274 </weight>
<weight id="1575"> lhapdf=292275 </weight>
<weight id="1576"> lhapdf=292276 </weight>
<weight id="1577"> lhapdf=292277 </weight>
<weight id="1578"> lhapdf=292278 </weight>
<weight id="1579"> lhapdf=292279 </weight>
<weight id="1580"> lhapdf=292280 </weight>
<weight id="1581"> lhapdf=292281 </weight>
<weight id="1582"> lhapdf=292282 </weight>
<weight id="1583"> lhapdf=292283 </weight>
<weight id="1584"> lhapdf=292284 </weight>
<weight id="1585"> lhapdf=292285 </weight>
<weight id="1586"> lhapdf=292286 </weight>
<weight id="1587"> lhapdf=292287 </weight>
<weight id="1588"> lhapdf=292288 </weight>
<weight id="1589"> lhapdf=292289 </weight>
<weight id="1590"> lhapdf=292290 </weight>
<weight id="1591"> lhapdf=292291 </weight>
<weight id="1592"> lhapdf=292292 </weight>
<weight id="1593"> lhapdf=292293 </weight>
<weight id="1594"> lhapdf=292294 </weight>
<weight id="1595"> lhapdf=292295 </weight>
<weight id="1596"> lhapdf=292296 </weight>
<weight id="1597"> lhapdf=292297 </weight>
<weight id="1598"> lhapdf=292298 </weight>
<weight id="1599"> lhapdf=292299 </weight>
<weight id="1600"> lhapdf=292300 </weight>
<weight id="1601"> lhapdf=292301 </weight>
<weight id="1602"> lhapdf=292302 </weight>
<weight id="1700"> lhapdf=292600 </weight>
<weight id="1800"> lhapdf=315000 </weight>
<weight id="1850"> lhapdf=315200 </weight>
<weight id="1900"> lhapdf=262000 </weight>
<weight id="1950"> lhapdf=263000 </weight>
</weightgroup>
</initrwgt>
</header>
<init>
    2212  2212  6.5000000E+03  6.5000000E+03  0  0  325300  325300  -4  1
	2.6685686E-02	4.6917388E-05	1.0000000E+00	9999
</init>
<event>
    5  9999  2.9765200E-02  1.2967400E+01  -1.0000000E+00  1.8001400E-01
	21	-1	0	0	502	501	0.0000000000E+00	0.0000000000E+00	2.1195450550E+03	2.1195450550E+03	0.0000000000E+00	0.000E+00	9.0
	21	-1	0	0	512	502	0.0000000000E+00	0.0000000000E+00	-2.8651898760E+01	2.8651898760E+01	0.0000000000E+00	0.000E+00	9.0
	25	1	1	2	0	0	-4.6788298590E+01	1.5101549890E+02	1.5809415210E+03	1.5937364650E+03	1.2500000000E+02	0.000E+00	9.0
	25	1	1	2	0	0	4.4557144020E+01	-1.3824144950E+02	5.0573860590E+02	5.4082582680E+02	1.2500000000E+02	0.000E+00	9.0
	21	1	1	2	512	501	2.2311545700E+00	-1.2774049420E+01	4.2130287150E+00	1.3634661720E+01	5.3974301450E-07	0.000E+00	9.0
#rwgt            1           1   6.7644368221822085E-002   306751841         389           0
</event>
<event>
    5  9999  2.9765200E-02  6.3647800E+00  -1.0000000E+00  2.1634500E-01
	21	-1	0	0	502	501	0.0000000000E+00	0.0000000000E+00	1.9380696090E+02	1.9380696090E+02	0.0000000000E+00	0.000E+00	9.0
	21	-1	0	0	501	511	0.0000000000E+00	0.0000000000E+00	-1.7694632300E+02	1.7694632300E+02	0.0000000000E+00	0.000E+00	9.0
	25	1	1	2	0	0	4.0358723870E+01	1.1620789370E+02	-4.4059837040E+01	1.8082967230E+02	1.2500000000E+02	0.000E+00	9.0
	25	1	1	2	0	0	-4.0268607600E+01	-1.0984374860E+02	6.4093328140E+01	1.8281182840E+02	1.2500000000E+02	0.000E+00	9.0
	21	1	1	2	502	511	-9.0116273840E-02	-6.3641450160E+00	-3.1728532520E+00	7.1117832140E+00	1.1920928960E-07	0.000E+00	9.0
#rwgt            1           1   2.1090898063358666E-002   306751841          61           0
</event>
<event>
    5  9999  2.9765200E-02  8.1794400E+01  -1.0000000E+00  1.2619100E-01
	21	-1	0	0	502	511	0.0000000000E+00	0.0000000000E+00	3.9688323760E+02	3.9688323760E+02	0.0000000000E+00	0.000E+00	9.0
	21	-1	0	0	501	502	0.0000000000E+00	0.0000000000E+00	-5.4179801350E+02	5.4179801350E+02	0.0000000000E+00	0.000E+00	9.0
	25	1	1	2	0	0	2.1050629070E+02	-2.1055443270E+02	-3.6476359950E+02	4.8715865080E+02	1.2500000000E+02	0.000E+00	9.0
	25	1	1	2	0	0	-1.9957404990E+02	1.2949388780E+02	6.5146050830E+01	2.7652753260E+02	1.2500000000E+02	0.000E+00	9.0
	21	1	1	2	501	511	-1.0932240870E+01	8.1060544900E+01	1.5470277270E+02	1.7499506770E+02	2.6973983050E-06	0.000E+00	9.0
#rwgt            1           1   1.9780735660117940E-002   306751841         660           0
</event>
<event>
    5  9999  2.9765200E-02  3.8040000E+01  -1.0000000E+00  1.4398200E-01
	21	-1	0	0	502	501	0.0000000000E+00	0.0000000000E+00	1.2577605770E+03	1.2577605770E+03	0.0000000000E+00	0.000E+00	9.0
	21	-1	0	0	511	502	0.0000000000E+00	0.0000000000E+00	-2.2070561550E+02	2.2070561550E+02	0.0000000000E+00	0.000E+00	9.0
	25	1	1	2	0	0	2.6193071070E+02	-5.9402396800E+01	4.8922638590E+02	5.7192988960E+02	1.2500000000E+02	0.000E+00	9.0
	25	1	1	2	0	0	-2.6666257970E+02	9.7146954030E+01	6.9153169210E+02	7.5788359480E+02	1.2500000000E+02	0.000E+00	9.0
	21	1	1	2	511	501	4.7318690370E+00	-3.7744557230E+01	-1.4370311610E+02	1.4865270860E+02	1.9073486330E-06	0.000E+00	9.0
#rwgt            1           1   1.9972874034065623E-002   306751841         941           0
</event>
<event>
    5  9999  2.9765200E-02  2.6794700E+01  -1.0000000E+00  1.5397200E-01
	21	-1	0	0	502	512	0.0000000000E+00	0.0000000000E+00	1.1209089360E+03	1.1209089360E+03	0.0000000000E+00	0.000E+00	9.0
	21	-1	0	0	501	502	0.0000000000E+00	0.0000000000E+00	-1.1103664680E+02	1.1103664680E+02	0.0000000000E+00	0.000E+00	9.0
	25	1	1	2	0	0	-1.8131081320E+02	-3.9148271670E+01	9.9671454160E+01	2.4487873920E+02	1.2500000000E+02	0.000E+00	9.0
	25	1	1	2	0	0	2.0176069510E+02	5.6461832940E+01	3.5232443920E+02	4.2854734530E+02	1.2500000000E+02	0.000E+00	9.0
	21	1	1	2	501	512	-2.0449881980E+01	-1.7313561270E+01	5.5787639530E+02	5.5851949790E+02	1.0789593220E-05	0.000E+00	9.0
#rwgt            1           1   3.2321899391086158E-002   306751841         784           0
</event>
<event>
    5  9999  2.9765200E-02  4.6720300E+01  -1.0000000E+00  1.3871900E-01
	21	-1	0	0	502	512	0.0000000000E+00	0.0000000000E+00	2.0628170670E+02	2.0628170670E+02	0.0000000000E+00	0.000E+00	9.0
	21	-1	0	0	501	502	0.0000000000E+00	0.0000000000E+00	-1.3021027860E+03	1.3021027860E+03	0.0000000000E+00	0.000E+00	9.0
	25	1	1	2	0	0	5.7659093090E+01	-3.5641632550E+01	-1.1377379850E+03	1.1465895600E+03	1.2500000000E+02	0.000E+00	9.0
	25	1	1	2	0	0	-7.2194204630E+01	-8.7601151410E+00	-1.2333443250E+02	1.9006610700E+02	1.2500000000E+02	0.000E+00	9.0
	21	1	1	2	501	512	1.4535111540E+01	4.4401747690E+01	1.6525133830E+02	1.7172882540E+02	3.8146972660E-06	0.000E+00	9.0
#rwgt            1           1   3.2352751015808943E-002   306751841        1080           0
</event>
<event>
    5  9999  2.9765200E-02  4.6282900E+01  -1.0000000E+00  1.3895100E-01
	21	-1	0	0	502	501	0.0000000000E+00	0.0000000000E+00	5.1359642850E+01	5.1359642850E+01	0.0000000000E+00	0.000E+00	9.0
	2	-1	0	0	501	0	0.0000000000E+00	0.0000000000E+00	-1.6899521540E+03	1.6899521540E+03	0.0000000000E+00	0.000E+00	9.0
	25	1	1	2	0	0	2.6151849080E+01	3.9606586110E+01	-8.1568975630E+01	1.5662406790E+02	1.2500000000E+02	0.000E+00	9.0
	25	1	1	2	0	0	-4.4880899230E+01	-8.1930668650E+01	-4.4261693560E+02	4.6932044620E+02	1.2500000000E+02	0.000E+00	9.0
	2	1	1	2	502	0	1.8729050150E+01	4.2324082540E+01	-1.1144066000E+03	1.1153672830E+03	1.5258789060E-05	0.000E+00	9.0
#rwgt            1           1   4.3427895712014768E-002   306751841        1211           0
</event>
<event>
    5  9999  -2.9765200E-02  5.9205100E+01  -1.0000000E+00  1.3312300E-01
	21	-1	0	0	502	501	0.0000000000E+00	0.0000000000E+00	3.1422534990E+01	3.1422534990E+01	0.0000000000E+00	0.000E+00	9.0
	21	-1	0	0	511	502	0.0000000000E+00	0.0000000000E+00	-1.7505277620E+03	1.7505277620E+03	0.0000000000E+00	0.000E+00	9.0
	25	1	1	2	0	0	-1.2655977840E+02	2.1287605670E+01	-6.1222111430E+02	6.3789515790E+02	1.2500000000E+02	0.000E+00	9.0
	25	1	1	2	0	0	7.5979206120E+01	-5.2058530850E+01	-3.2767578650E+02	3.6260081560E+02	1.2500000000E+02	0.000E+00	9.0
	21	1	1	2	511	501	5.0580572240E+01	3.0770925180E+01	-7.7920832660E+02	7.8145432390E+02	1.0789593220E-05	0.000E+00	9.0
#rwgt            1           1  -1.3940348245885130E-002   306751841        1260           0
</event>
<event>
    5  9999  2.9765200E-02  4.0943000E+01  -1.0000000E+00  1.4205300E-01
	21	-1	0	0	502	501	0.0000000000E+00	0.0000000000E+00	9.6294517300E+02	9.6294517300E+02	0.0000000000E+00	0.000E+00	9.0
	21	-1	0	0	501	512	0.0000000000E+00	0.0000000000E+00	-1.5093931790E+02	1.5093931790E+02	0.0000000000E+00	0.000E+00	9.0
	25	1	1	2	0	0	-7.3425999500E+01	7.3453482160E+00	-9.1897517960E+01	1.7180071410E+02	1.2500000000E+02	0.000E+00	9.0
	25	1	1	2	0	0	1.1332041880E+02	-1.6552105640E+01	8.7666848890E+02	8.9290992210E+02	1.2500000000E+02	0.000E+00	9.0
	21	1	1	2	502	512	-3.9894419340E+01	9.2067574210E+00	2.7234884150E+01	4.9173854750E+01	3.3717478810E-07	0.000E+00	9.0
#rwgt            1           1   3.6118699556806633E-002   306751841        1323           0
</event>
<event>
    5  9999  2.9765200E-02  3.6673200E+01  -1.0000000E+00  1.4496300E-01
	21	-1	0	0	502	501	0.0000000000E+00	0.0000000000E+00	5.4610804240E+02	5.4610804240E+02	0.0000000000E+00	0.000E+00	9.0
	21	-1	0	0	511	502	0.0000000000E+00	0.0000000000E+00	-8.9782769680E+01	8.9782769680E+01	0.0000000000E+00	0.000E+00	9.0
	25	1	1	2	0	0	-1.0640557620E+02	-5.3036594570E+01	3.1935383530E+02	3.6296955670E+02	1.2500000000E+02	0.000E+00	9.0
	25	1	1	2	0	0	1.4290037950E+02	4.9423817370E+01	1.3065135400E+02	2.3570746380E+02	1.2500000000E+02	0.000E+00	9.0
	21	1	1	2	511	501	-3.6494803310E+01	3.6127771990E+00	6.3200834370E+00	3.7213791560E+01	1.0254770840E-06	0.000E+00	9.0
#rwgt            1           1   3.4399299098685325E-002   306751841        1479           0
</event>
<event>
    5  9999  2.9765200E-02  4.6760600E+01  -1.0000000E+00  1.3869700E-01
	21	-1	0	0	512	501	0.0000000000E+00	0.0000000000E+00	5.4316729390E+02	5.4316729390E+02	0.0000000000E+00	0.000E+00	9.0
	21	-1	0	0	501	502	0.0000000000E+00	0.0000000000E+00	-2.8227830620E+02	2.8227830620E+02	0.0000000000E+00	0.000E+00	9.0
	25	1	1	2	0	0	8.2173074910E+00	-1.1113486000E+02	2.5197403080E+01	1.6934695260E+02	1.2500000000E+02	0.000E+00	9.0
	25	1	1	2	0	0	-2.5640599620E+01	6.7741500250E+01	-1.8392774690E+02	2.3388195160E+02	1.2500000000E+02	0.000E+00	9.0
	21	1	1	2	512	502	1.7423292130E+01	4.3393359730E+01	4.1961933160E+02	4.2221669580E+02	7.6293945310E-06	0.000E+00	9.0
#rwgt            1           1   3.3193889851653821E-002   306751841        1618           0
</event>
<event>
    5  9999  2.9765200E-02  4.3851000E+01  -1.0000000E+00  1.4029900E-01
	21	-1	0	0	511	501	0.0000000000E+00	0.0000000000E+00	7.6029524910E+02	7.6029524910E+02	0.0000000000E+00	0.000E+00	9.0
	21	-1	0	0	501	502	0.0000000000E+00	0.0000000000E+00	-1.4369344900E+02	1.4369344900E+02	0.0000000000E+00	0.000E+00	9.0
	25	1	1	2	0	0	-1.8887433070E+02	-8.6695743020E+01	3.5240774120E+02	4.2779186610E+02	1.2500000000E+02	0.000E+00	9.0
	25	1	1	2	0	0	1.4526313420E+02	8.2116417040E+01	1.0652817600E-01	2.0849339430E+02	1.2500000000E+02	0.000E+00	9.0
	21	1	1	2	511	502	4.3611196480E+01	4.5793259730E+00	2.6408753070E+02	2.6770343770E+02	3.8146972660E-06	0.000E+00	9.0
#rwgt            1           1   3.4691618504445479E-002   306751841        1753           0
</event>
<event>
    5  9999  2.9765200E-02  1.1135800E+02  -1.0000000E+00  1.2022900E-01
	21	-1	0	0	502	501	0.0000000000E+00	0.0000000000E+00	3.1938089760E+02	3.1938089760E+02	0.0000000000E+00	0.000E+00	9.0
	2	-1	0	0	501	0	0.0000000000E+00	0.0000000000E+00	-1.8480549870E+03	1.8480549870E+03	0.0000000000E+00	0.000E+00	9.0
	25	1	1	2	0	0	-1.4490714680E+02	-2.0390409740E+01	2.5212583200E+02	3.1718493850E+02	1.2500000000E+02	0.000E+00	9.0
	25	1	1	2	0	0	3.3624494280E+01	2.4487721490E+01	-9.9058455830E+01	1.6482667500E+02	1.2500000000E+02	0.000E+00	9.0
	2	1	1	2	502	0	1.1128265260E+02	-4.0973117490E+00	-1.6817414650E+03	1.6854242710E+03	0.0000000000E+00	0.000E+00	9.0
#rwgt            1           1   3.7356979530185991E-002   306751841        2002           0
</event>
<event>
    5  9999  2.9765200E-02  4.2703800E+01  -1.0000000E+00  1.4097100E-01
	21	-1	0	0	502	501	0.0000000000E+00	0.0000000000E+00	3.4619185300E+01	3.4619185300E+01	0.0000000000E+00	0.000E+00	9.0
	1	-1	0	0	501	0	0.0000000000E+00	0.0000000000E+00	-2.1763526970E+03	2.1763526970E+03	0.0000000000E+00	0.000E+00	9.0
	25	1	1	2	0	0	1.2521977070E+02	-1.3478353530E+02	-9.5561320720E+02	9.8115655950E+02	1.2500000000E+02	0.000E+00	9.0
	25	1	1	2	0	0	-1.2313168130E+02	1.7743629290E+02	-7.2542437480E+02	7.6714442740E+02	1.2500000000E+02	0.000E+00	9.0
	1	1	1	2	502	0	-2.0880893900E+00	-4.2652757550E+01	-4.6069592940E+02	4.6267089510E+02	7.6293945310E-06	0.000E+00	9.0
#rwgt            1           1   2.2010999268355081E-002   306751841        2423           0
</event>
<event>
    5  9999  2.9765200E-02  9.5823200E+00  -1.0000000E+00  1.9378900E-01
	21	-1	0	0	502	501	0.0000000000E+00	0.0000000000E+00	2.4345853130E+02	2.4345853130E+02	0.0000000000E+00	0.000E+00	9.0
	21	-1	0	0	511	502	0.0000000000E+00	0.0000000000E+00	-5.9689791310E+02	5.9689791310E+02	0.0000000000E+00	0.000E+00	9.0
	25	1	1	2	0	0	-2.5488798810E+02	7.7101938700E+01	-4.1247558350E+02	5.0662974890E+02	1.2500000000E+02	0.000E+00	9.0
	25	1	1	2	0	0	2.4758959700E+02	-8.3311158830E+01	8.8440530180E+01	3.0280040470E+02	1.2500000000E+02	0.000E+00	9.0
	21	1	1	2	511	501	7.2983911790E+00	6.2092201350E+00	-2.9404328490E+01	3.0926290800E+01	5.8400386400E-07	0.000E+00	9.0
#rwgt            1           1   2.9217791370400394E-002   306751841        2080           0
</event>
<event>
    5  9999  2.9765200E-02  1.4814700E+01  -1.0000000E+00  1.7457200E-01
	21	-1	0	0	502	511	0.0000000000E+00	0.0000000000E+00	3.6364260890E+02	3.6364260890E+02	0.0000000000E+00	0.000E+00	9.0
	21	-1	0	0	501	502	0.0000000000E+00	0.0000000000E+00	-1.5915582780E+02	1.5915582780E+02	0.0000000000E+00	0.000E+00	9.0
	25	1	1	2	0	0	1.7799156570E+02	-1.5602167570E+01	2.6990077260E+01	2.1972230050E+02	1.2500000000E+02	0.000E+00	9.0
	25	1	1	2	0	0	-1.6735571460E+02	5.2893098470E+00	1.1430962270E+02	2.3817556940E+02	1.2500000000E+02	0.000E+00	9.0
	21	1	1	2	501	511	-1.0635851110E+01	1.0312857730E+01	6.3187081080E+01	6.4900566860E+01	6.7434957620E-07	0.000E+00	9.0
#rwgt            1           1   2.8290530160222930E-002   306751841        2558           0
</event>
<event>
    5  9999  2.9765200E-02  2.3759500E+01  -1.0000000E+00  1.5773600E-01
	21	-1	0	0	502	501	0.0000000000E+00	0.0000000000E+00	4.5877350170E+02	4.5877350170E+02	0.0000000000E+00	0.000E+00	9.0
	21	-1	0	0	512	502	0.0000000000E+00	0.0000000000E+00	-1.3860903700E+02	1.3860903700E+02	0.0000000000E+00	0.000E+00	9.0
	25	1	1	2	0	0	3.7739500890E+01	1.6898990170E+02	2.6407188130E+02	3.3961863210E+02	1.2500000000E+02	0.000E+00	9.0
	25	1	1	2	0	0	-1.9690135170E+01	-1.5353881840E+02	8.8351941980E+01	2.1769918660E+02	1.2500000000E+02	0.000E+00	9.0
	21	1	1	2	512	501	-1.8049365710E+01	-1.5451083300E+01	-3.2259358490E+01	4.0064719990E+01	8.2590618490E-07	0.000E+00	9.0
#rwgt            1           1   3.3218242978555579E-002   306751841        2880           0
</event>
<event>
    5  9999  2.9765200E-02  1.6948800E+02  -1.0000000E+00  1.1298000E-01
	21	-1	0	0	511	501	0.0000000000E+00	0.0000000000E+00	3.6306447980E+02	3.6306447980E+02	0.0000000000E+00	0.000E+00	9.0
	21	-1	0	0	501	502	0.0000000000E+00	0.0000000000E+00	-3.8651079270E+02	3.8651079270E+02	0.0000000000E+00	0.000E+00	9.0
	25	1	1	2	0	0	1.6727123410E+02	1.2117835180E+02	-1.6627147310E+02	2.9314682580E+02	1.2500000000E+02	0.000E+00	9.0
	25	1	1	2	0	0	-2.2116038100E+02	3.9514263960E+01	1.2539744830E+02	2.8604686890E+02	1.2500000000E+02	0.000E+00	9.0
	21	1	1	2	511	502	5.3889146880E+01	-1.6069261580E+02	1.7427711860E+01	1.7038157780E+02	2.6441899550E-06	0.000E+00	9.0
#rwgt            1           1   2.2814631311882421E-002   306751841        3019           0
</event>
<event>
    5  9999  2.9765200E-02  3.1415700E+01  -1.0000000E+00  1.4926500E-01
	21	-1	0	0	502	501	0.0000000000E+00	0.0000000000E+00	1.6759853470E+02	1.6759853470E+02	0.0000000000E+00	0.000E+00	9.0
	3	-1	0	0	501	0	0.0000000000E+00	0.0000000000E+00	-5.3764974270E+02	5.3764974270E+02	0.0000000000E+00	0.000E+00	9.0
	25	1	1	2	0	0	1.6317804630E+02	3.3745444090E+01	-4.2281182190E+01	2.1255241270E+02	1.2500000000E+02	0.000E+00	9.0
	25	1	1	2	0	0	-1.7175652680E+02	-3.5236244580E+00	-5.6809929600E+01	2.1992064140E+02	1.2500000000E+02	0.000E+00	9.0
	3	1	1	2	502	0	8.5784804460E+00	-3.0221819630E+01	-2.7096009620E+02	2.7277522330E+02	3.8146972660E-06	0.000E+00	9.0
#rwgt            1           1   2.6898423226132496E-002   306751841        3103           0
</event>
<event>
    5  9999  2.9765200E-02  7.5463700E+01  -1.0000000E+00  1.2784900E-01
	21	-1	0	0	502	501	0.0000000000E+00	0.0000000000E+00	2.1162204170E+02	2.1162204170E+02	0.0000000000E+00	0.000E+00	9.0
	21	-1	0	0	501	511	0.0000000000E+00	0.0000000000E+00	-4.1964786320E+02	4.1964786320E+02	0.0000000000E+00	0.000E+00	9.0
	25	1	1	2	0	0	-5.3276930900E+01	9.1860996140E-01	1.6009722010E+02	2.0998903570E+02	1.2500000000E+02	0.000E+00	9.0
	25	1	1	2	0	0	-2.0789995600E+01	1.3533449980E+01	-2.0229099370E+02	2.3908580950E+02	1.2500000000E+02	0.000E+00	9.0
	21	1	1	2	502	511	7.4066926510E+01	-1.4452059940E+01	-1.6583204790E+02	1.8219505960E+02	0.0000000000E+00	0.000E+00	9.0
#rwgt            1           1   3.4791748821749485E-002   306751841        3217           0
</event>
<event>
    5  9999  2.9765200E-02  2.9860900E+02  -1.0000000E+00  1.0450800E-01
	-3	-1	0	0	0	501	0.0000000000E+00	0.0000000000E+00	1.6355904890E+03	1.6355904890E+03	0.0000000000E+00	0.000E+00	9.0
	21	-1	0	0	501	502	0.0000000000E+00	0.0000000000E+00	-4.1953574940E+02	4.1953574940E+02	0.0000000000E+00	0.000E+00	9.0
	25	1	1	2	0	0	-4.3949703900E+02	-3.8484189120E+01	1.4223120250E+02	4.8009727670E+02	1.2500000000E+02	0.000E+00	9.0
	25	1	1	2	0	0	6.1508053970E+02	2.8001627720E+02	3.0817934730E+02	7.5321490680E+02	1.2500000000E+02	0.000E+00	9.0
	-3	1	1	2	0	502	-1.7558350070E+02	-2.4153208810E+02	7.6564419020E+02	8.2181405510E+02	0.0000000000E+00	0.000E+00	9.0
#rwgt            2           3   2.8857328463725977E-005   306751841        3344           0
</event>
<event>
    5  9999  2.9765200E-02  1.7735200E+02  -1.0000000E+00  1.1225100E-01
	-1	-1	0	0	0	501	0.0000000000E+00	0.0000000000E+00	1.7619657000E+02	1.7619657000E+02	0.0000000000E+00	0.000E+00	9.0
	21	-1	0	0	501	502	0.0000000000E+00	0.0000000000E+00	-5.3609369090E+02	5.3609369090E+02	0.0000000000E+00	0.000E+00	9.0
	25	1	1	2	0	0	-3.1940584360E+01	4.0014815710E+01	-3.2867658260E+02	3.5535149130E+02	1.2500000000E+02	0.000E+00	9.0
	25	1	1	2	0	0	-6.4217533390E+01	1.0900688730E+02	-7.5338835930E+00	1.7801166390E+02	1.2500000000E+02	0.000E+00	9.0
	-1	1	1	2	0	502	9.6158117750E+01	-1.4902170300E+02	-2.3686654730E+01	1.7892710580E+02	4.0460974570E-06	0.000E+00	9.0
#rwgt            1           1   2.7853432360236324E-002   306751841        3423           0
</event>
<event>
    5  9999  2.9765200E-02  4.7181400E+01  -1.0000000E+00  1.3847700E-01
	21	-1	0	0	511	501	0.0000000000E+00	0.0000000000E+00	1.5376001840E+02	1.5376001840E+02	0.0000000000E+00	0.000E+00	9.0
	21	-1	0	0	501	502	0.0000000000E+00	0.0000000000E+00	-3.3648341780E+02	3.3648341780E+02	0.0000000000E+00	0.000E+00	9.0
	25	1	1	2	0	0	-4.1483727760E+01	-4.8012189110E+01	-2.5746970830E+02	2.9315818370E+02	1.2500000000E+02	0.000E+00	9.0
	25	1	1	2	0	0	4.5207849500E+01	9.7799439300E-01	4.1102424130E+01	1.3913703820E+02	1.2500000000E+02	0.000E+00	9.0
	21	1	1	2	511	502	-3.7241217370E+00	4.7034194710E+01	3.3643884740E+01	5.7948214260E+01	8.2590618490E-07	0.000E+00	9.0
#rwgt            1           1   3.2215417096605296E-002   306751841        3482           0
</event>
<event>
    5  9999  2.9765200E-02  6.9068700E+01  -1.0000000E+00  1.2972300E-01
	21	-1	0	0	502	501	0.0000000000E+00	0.0000000000E+00	3.9251257690E+02	3.9251257690E+02	0.0000000000E+00	0.000E+00	9.0
	21	-1	0	0	501	512	0.0000000000E+00	0.0000000000E+00	-7.3960549290E+02	7.3960549290E+02	0.0000000000E+00	0.000E+00	9.0
	25	1	1	2	0	0	2.1688739240E+02	1.7729437140E+02	-5.9280006360E+02	6.6746561750E+02	1.2500000000E+02	0.000E+00	9.0
	25	1	1	2	0	0	-1.5228592130E+02	-1.5285814450E+02	2.9010307100E+02	3.8254595270E+02	1.2500000000E+02	0.000E+00	9.0
	21	1	1	2	502	512	-6.4601471110E+01	-2.4436226900E+01	-4.4395923370E+01	8.2106499540E+01	1.1680077280E-06	0.000E+00	9.0
#rwgt            1           1  0.20681423414837105        306751841        3579           0
</event>
<event>
    5  9999  2.9765200E-02  2.2295100E+01  -1.0000000E+00  1.5980600E-01
	21	-1	0	0	502	511	0.0000000000E+00	0.0000000000E+00	3.8960660000E+02	3.8960660000E+02	0.0000000000E+00	0.000E+00	9.0
	21	-1	0	0	501	502	0.0000000000E+00	0.0000000000E+00	-1.0057388590E+02	1.0057388590E+02	0.0000000000E+00	0.000E+00	9.0
	25	1	1	2	0	0	9.7458621390E+01	-2.4109731930E+01	8.5131176910E+01	1.8152624970E+02	1.2500000000E+02	0.000E+00	9.0
	25	1	1	2	0	0	-1.1949909070E+02	2.7469662580E+01	9.8463359570E+01	2.0088466390E+02	1.2500000000E+02	0.000E+00	9.0
	21	1	1	2	501	511	2.2040469270E+01	-3.3599306480E+00	1.0543817750E+02	1.0776957230E+02	0.0000000000E+00	0.000E+00	9.0
#rwgt            1           1   3.4485468033387930E-002   306751841        3699           0
</event>
<event>
    5  9999  2.9765200E-02  7.6549400E+01  -1.0000000E+00  1.2755200E-01
	21	-1	0	0	502	501	0.0000000000E+00	0.0000000000E+00	1.9882883400E+02	1.9882883400E+02	0.0000000000E+00	0.000E+00	9.0
	21	-1	0	0	501	512	0.0000000000E+00	0.0000000000E+00	-6.7867862920E+02	6.7867862920E+02	0.0000000000E+00	0.000E+00	9.0
	25	1	1	2	0	0	-7.4194448140E+01	-9.5835306770E+01	-4.0649196610E+02	4.4221029010E+02	1.2500000000E+02	0.000E+00	9.0
	25	1	1	2	0	0	1.4894365820E+02	7.9331828850E+01	1.0966126490E+02	2.3691421520E+02	1.2500000000E+02	0.000E+00	9.0
	21	1	1	2	502	512	-7.4749210010E+01	1.6503477920E+01	-1.8301909400E+02	1.9838295780E+02	0.0000000000E+00	0.000E+00	9.0
#rwgt            1           1   2.2909409958758863E-002   306751841        3844           0
</event>
<event>
    5  9999  2.9765200E-02  2.9184800E+01  -1.0000000E+00  1.5140700E-01
	21	-1	0	0	502	511	0.0000000000E+00	0.0000000000E+00	3.7511759140E+02	3.7511759140E+02	0.0000000000E+00	0.000E+00	9.0
	21	-1	0	0	501	502	0.0000000000E+00	0.0000000000E+00	-1.8548961250E+02	1.8548961250E+02	0.0000000000E+00	0.000E+00	9.0
	25	1	1	2	0	0	-4.0516075900E+01	4.5764034070E+01	2.7834694960E+02	3.1118792320E+02	1.2500000000E+02	0.000E+00	9.0
	25	1	1	2	0	0	3.1648437140E+01	-7.3569040350E+01	-1.3103626350E+02	1.9801396320E+02	1.2500000000E+02	0.000E+00	9.0
	21	1	1	2	501	511	8.8676387670E+00	2.7805006280E+01	4.2317292860E+01	5.1405317490E+01	6.7434957620E-07	0.000E+00	9.0
#rwgt            1           1   3.1420175934409718E-002   306751841        4038           0
</event>
<event>
    5  9999  2.9765200E-02  1.7121400E+02  -1.0000000E+00  1.1281600E-01
	21	-1	0	0	502	512	0.0000000000E+00	0.0000000000E+00	7.9819609080E+02	7.9819609080E+02	0.0000000000E+00	0.000E+00	9.0
	21	-1	0	0	501	502	0.0000000000E+00	0.0000000000E+00	-1.3375207850E+03	1.3375207850E+03	0.0000000000E+00	0.000E+00	9.0
	25	1	1	2	0	0	1.4442149730E+02	1.3887569310E+02	-1.7559648310E+02	2.9428413460E+02	1.2500000000E+02	0.000E+00	9.0
	25	1	1	2	0	0	-7.8791218800E+01	1.9260465740E+01	-1.0875123280E+03	1.0976734880E+03	1.2500000000E+02	0.000E+00	9.0
	21	1	1	2	501	512	-6.5630278550E+01	-1.5813615880E+02	7.2378411730E+02	7.4375925320E+02	1.0789593220E-05	0.000E+00	9.0
#rwgt            1           1   3.3590422148915708E-002   306751841        4148           0
</event>
<event>
    5  9999  2.9765200E-02  6.3956100E+01  -1.0000000E+00  1.3139700E-01
	21	-1	0	0	502	501	0.0000000000E+00	0.0000000000E+00	2.9167364670E+03	2.9167364670E+03	0.0000000000E+00	0.000E+00	9.0
	21	-1	0	0	511	502	0.0000000000E+00	0.0000000000E+00	-2.5314796760E+01	2.5314796760E+01	0.0000000000E+00	0.000E+00	9.0
	25	1	1	2	0	0	-2.0713850400E+02	9.7277509670E+01	1.2707313370E+03	1.2972094680E+03	1.2500000000E+02	0.000E+00	9.0
	25	1	1	2	0	0	1.4778423240E+02	-7.3456161660E+01	1.3944732890E+03	1.4097576890E+03	1.2500000000E+02	0.000E+00	9.0
	21	1	1	2	511	501	5.9354271560E+01	-2.3821348010E+01	2.2621704400E+02	2.3508410660E+02	3.8146972660E-06	0.000E+00	9.0
#rwgt            1           1  0.14138375813589796        306751841        4291           0
</event>
<event>
    5  9999  2.9765200E-02  5.5374200E+01  -1.0000000E+00  1.3465600E-01
	21	-1	0	0	512	501	0.0000000000E+00	0.0000000000E+00	4.8525936040E+01	4.8525936040E+01	0.0000000000E+00	0.000E+00	9.0
	21	-1	0	0	501	502	0.0000000000E+00	0.0000000000E+00	-1.8740117250E+03	1.8740117250E+03	0.0000000000E+00	0.000E+00	9.0
	25	1	1	2	0	0	1.3306368060E+02	-4.4684702900E+01	-1.4056611850E+03	1.4181717220E+03	1.2500000000E+02	0.000E+00	9.0
	25	1	1	2	0	0	-1.7950767480E+02	1.4530888450E+01	-3.6896972730E+02	4.2918272530E+02	1.2500000000E+02	0.000E+00	9.0
	21	1	1	2	512	502	4.6443994260E+01	3.0153814460E+01	-5.0854876010E+01	7.5183213180E+01	9.5367431640E-07	0.000E+00	9.0
#rwgt            1           1  0.10022941085981604        306751841        4483           0
</event>
<event>
    5  9999  2.9765200E-02  1.0357900E+02  -1.0000000E+00  1.2157600E-01
	21	-1	0	0	502	501	0.0000000000E+00	0.0000000000E+00	6.4774082370E+01	6.4774082370E+01	0.0000000000E+00	0.000E+00	9.0
	21	-1	0	0	501	512	0.0000000000E+00	0.0000000000E+00	-1.0203706650E+03	1.0203706650E+03	0.0000000000E+00	0.000E+00	9.0
	25	1	1	2	0	0	8.9863083890E+01	-8.1277436420E+01	-1.8546940590E+02	2.5437235710E+02	1.2500000000E+02	0.000E+00	9.0
	25	1	1	2	0	0	-1.9123944090E+01	1.5693889510E+02	-4.2372360010E+02	4.6921448330E+02	1.2500000000E+02	0.000E+00	9.0
	21	1	1	2	502	512	-7.0739139800E+01	-7.5661458670E+01	-3.4640357680E+02	3.6155790710E+02	3.8146972660E-06	0.000E+00	9.0
#rwgt            1           1   2.9091558455479265E-002   306751841        4854           0
</event>
<event>
    5  9999  2.9765200E-02  9.9767300E+00  -1.0000000E+00  1.9182700E-01
	21	-1	0	0	511	501	0.0000000000E+00	0.0000000000E+00	9.7986345320E+02	9.7986345320E+02	0.0000000000E+00	0.000E+00	9.0
	21	-1	0	0	501	502	0.0000000000E+00	0.0000000000E+00	-7.7359964300E+01	7.7359964300E+01	0.0000000000E+00	0.000E+00	9.0
	25	1	1	2	0	0	5.2677051660E+01	-1.0004504500E+02	5.8826262920E+01	1.7852006050E+02	1.2500000000E+02	0.000E+00	9.0
	25	1	1	2	0	0	-5.8569480820E+01	9.1994300050E+01	3.7656440450E+02	4.1148400470E+02	1.2500000000E+02	0.000E+00	9.0
	21	1	1	2	511	502	5.8924291550E+00	8.0507449650E+00	4.6711282140E+02	4.6721935230E+02	5.3947966090E-06	0.000E+00	9.0
#rwgt            1           1   3.7732055883527259E-002   306751841        4558           0
</event>
<event>
    5  9999  2.9765200E-02  7.3359000E+01  -1.0000000E+00  1.2844200E-01
	21	-1	0	0	502	501	0.0000000000E+00	0.0000000000E+00	1.1058791170E+02	1.1058791170E+02	0.0000000000E+00	0.000E+00	9.0
	2	-1	0	0	501	0	0.0000000000E+00	0.0000000000E+00	-1.2522626900E+03	1.2522626900E+03	0.0000000000E+00	0.000E+00	9.0
	25	1	1	2	0	0	6.6688207440E+01	4.2786414750E+01	-2.2057133060E+02	2.6562135870E+02	1.2500000000E+02	0.000E+00	9.0
	25	1	1	2	0	0	4.1923096870E+00	-6.1694007080E+01	3.0539158250E+01	1.4276332220E+02	1.2500000000E+02	0.000E+00	9.0
	2	1	1	2	502	0	-7.0880517130E+01	1.8907592320E+01	-9.5164260630E+02	9.5446592130E+02	0.0000000000E+00	0.000E+00	9.0
#rwgt            1           1   4.8187959996872615E-002   306751841        4968           0
</event>
<event>
    5  9999  -2.9765200E-02  4.0066400E+01  -1.0000000E+00  1.4261500E-01
	21	-1	0	0	502	501	0.0000000000E+00	0.0000000000E+00	6.0908214020E+01	6.0908214020E+01	0.0000000000E+00	0.000E+00	9.0
	21	-1	0	0	501	511	0.0000000000E+00	0.0000000000E+00	-5.6721899440E+02	5.6721899440E+02	0.0000000000E+00	0.000E+00	9.0
	25	1	1	2	0	0	4.2465812580E+01	9.6584142470E+01	-1.7886982360E+02	2.4238658300E+02	1.2500000000E+02	0.000E+00	9.0
	25	1	1	2	0	0	-3.3269761850E+00	-1.0515543300E+02	-2.7280916310E+02	3.1799146740E+02	1.2500000000E+02	0.000E+00	9.0
	21	1	1	2	502	511	-3.9138836390E+01	8.5712905160E+00	-5.4631793650E+01	6.7749158020E+01	1.1680077280E-06	0.000E+00	9.0
#rwgt            1           1 -0.10630094680601967        306751841        5071           0
</event>
<event>
    5  9999  2.9765200E-02  6.8521600E+01  -1.0000000E+00  1.2989400E-01
	21	-1	0	0	502	511	0.0000000000E+00	0.0000000000E+00	5.3387558860E+02	5.3387558860E+02	0.0000000000E+00	0.000E+00	9.0
	21	-1	0	0	501	502	0.0000000000E+00	0.0000000000E+00	-2.5892002120E+02	2.5892002120E+02	0.0000000000E+00	0.000E+00	9.0
	25	1	1	2	0	0	-1.9301320160E+02	1.5883037740E+02	7.3111008710E+01	2.8887956730E+02	1.2500000000E+02	0.000E+00	9.0
	25	1	1	2	0	0	1.6525114320E+02	-9.6184728920E+01	-5.7588746740E+01	2.3558630300E+02	1.2500000000E+02	0.000E+00	9.0
	21	1	1	2	501	511	2.7762058390E+01	-6.2645648470E+01	2.5943330540E+02	2.6832973950E+02	5.3947966090E-06	0.000E+00	9.0
#rwgt            1           1   3.1749782658766122E-002   306751841        5513           0
</event>
<event>
    5  9999  2.9765200E-02  4.3911800E+01  -1.0000000E+00  1.4026400E-01
	21	-1	0	0	502	512	0.0000000000E+00	0.0000000000E+00	1.1404354000E+02	1.1404354000E+02	0.0000000000E+00	0.000E+00	9.0
	21	-1	0	0	501	502	0.0000000000E+00	0.0000000000E+00	-1.0929446500E+03	1.0929446500E+03	0.0000000000E+00	0.000E+00	9.0
	25	1	1	2	0	0	5.7919042510E+01	-1.7760423150E+02	-6.7900880440E+02	7.1524529710E+02	1.2500000000E+02	0.000E+00	9.0
	25	1	1	2	0	0	-4.8510789330E+01	2.2049628470E+02	-3.4364520740E+02	4.2975450770E+02	1.2500000000E+02	0.000E+00	9.0
	21	1	1	2	501	512	-9.4082531760E+00	-4.2892053250E+01	4.3752902030E+01	6.1988385170E+01	2.3841857910E-06	0.000E+00	9.0
#rwgt            1           1   3.2085490587563964E-002   306751841        5351           0
</event>
<event>
    5  9999  2.9765200E-02  1.3898100E+01  -1.0000000E+00  1.7713900E-01
	21	-1	0	0	502	512	0.0000000000E+00	0.0000000000E+00	5.5140686220E+02	5.5140686220E+02	0.0000000000E+00	0.000E+00	9.0
	21	-1	0	0	501	502	0.0000000000E+00	0.0000000000E+00	-6.1952969580E+01	6.1952969580E+01	0.0000000000E+00	0.000E+00	9.0
	25	1	1	2	0	0	-4.4678034440E+01	-5.0085185460E+01	1.8914742230E+02	2.3644534230E+02	1.2500000000E+02	0.000E+00	9.0
	25	1	1	2	0	0	5.0639321240E+01	3.7530548700E+01	9.0608922910E+01	1.6675688850E+02	1.2500000000E+02	0.000E+00	9.0
	21	1	1	2	501	512	-5.9612868020E+00	1.2554636770E+01	2.0969754750E+02	2.1015760100E+02	0.0000000000E+00	0.000E+00	9.0
#rwgt            1           1   5.1535853852123725E-002   306751841        5684           0
</event>
<event>
    5  9999  2.9765200E-02  4.3980600E+01  -1.0000000E+00  1.4022500E-01
	21	-1	0	0	511	501	0.0000000000E+00	0.0000000000E+00	5.8259153980E+01	5.8259153980E+01	0.0000000000E+00	0.000E+00	9.0
	21	-1	0	0	501	502	0.0000000000E+00	0.0000000000E+00	-1.2216911780E+03	1.2216911780E+03	0.0000000000E+00	0.000E+00	9.0
	25	1	1	2	0	0	-4.3729909630E+01	1.4580793270E+02	-8.6742712630E+02	8.8950945900E+02	1.2500000000E+02	0.000E+00	9.0
	25	1	1	2	0	0	4.6133490910E+01	-1.0189301760E+02	-3.0258863050E+02	3.4597017980E+02	1.2500000000E+02	0.000E+00	9.0
	21	1	1	2	511	502	-2.4035812790E+00	-4.3914915160E+01	6.5837331250E+00	4.4470692800E+01	1.1087104820E-06	0.000E+00	9.0
#rwgt            1           1   6.9958084370875723E-002   306751841        5862           0
</event>
<event>
    5  9999  2.9765200E-02  2.3084400E+01  -1.0000000E+00  1.5866700E-01
	21	-1	0	0	502	501	0.0000000000E+00	0.0000000000E+00	9.9591470640E+01	9.9591470640E+01	0.0000000000E+00	0.000E+00	9.0
	21	-1	0	0	512	502	0.0000000000E+00	0.0000000000E+00	-4.2522944560E+02	4.2522944560E+02	0.0000000000E+00	0.000E+00	9.0
	25	1	1	2	0	0	1.2589256140E+02	9.4302456000E+01	-1.3644721250E+02	2.4286772540E+02	1.2500000000E+02	0.000E+00	9.0
	25	1	1	2	0	0	-1.0320438280E+02	-9.0043634020E+01	-1.6146950550E+02	2.4587883570E+02	1.2500000000E+02	0.000E+00	9.0
	21	1	1	2	512	501	-2.2688178610E+01	-4.2588219810E+00	-2.7721257030E+01	3.6074355220E+01	4.7683715820E-07	0.000E+00	9.0
#rwgt            1           1   7.4819286648087346E-002   306751841        5955           0
</event>
<event>
    5  9999  2.9765200E-02  1.3342700E+01  -1.0000000E+00  1.7881900E-01
	21	-1	0	0	511	501	0.0000000000E+00	0.0000000000E+00	6.8214692460E+02	6.8214692460E+02	0.0000000000E+00	0.000E+00	9.0
	21	-1	0	0	501	502	0.0000000000E+00	0.0000000000E+00	-8.6674378510E+01	8.6674378510E+01	0.0000000000E+00	0.000E+00	9.0
	25	1	1	2	0	0	1.5543216490E+02	-1.0801685810E+02	3.7664615710E+02	4.3967502450E+02	1.2500000000E+02	0.000E+00	9.0
	25	1	1	2	0	0	-1.4213877370E+02	1.0687044790E+02	1.6286179840E+02	2.7161312370E+02	1.2500000000E+02	0.000E+00	9.0
	21	1	1	2	511	502	-1.3293391230E+01	1.1464101910E+00	5.5964590620E+01	5.7533154880E+01	0.0000000000E+00	0.000E+00	9.0
#rwgt            1           1   3.2898877138136599E-002   306751841        6126           0
</event>
<event>
    5  9999  2.9765200E-02  1.3763800E+02  -1.0000000E+00  1.1645800E-01
	21	-1	0	0	502	501	0.0000000000E+00	0.0000000000E+00	2.5903975290E+02	2.5903975290E+02	0.0000000000E+00	0.000E+00	9.0
	21	-1	0	0	512	502	0.0000000000E+00	0.0000000000E+00	-3.1994669470E+02	3.1994669470E+02	0.0000000000E+00	0.000E+00	9.0
	25	1	1	2	0	0	2.0184359420E+02	-5.5710037660E+01	4.1366114210E+01	2.4734712490E+02	1.2500000000E+02	0.000E+00	9.0
	25	1	1	2	0	0	-7.0676565900E+01	1.4003132510E+01	2.2307735050E+01	1.4599280710E+02	1.2500000000E+02	0.000E+00	9.0
	21	1	1	2	512	501	-1.3116702830E+02	4.1706905150E+01	-1.2458079110E+02	1.8564651560E+02	1.9073486330E-06	0.000E+00	9.0
#rwgt            1           1   2.0530872222762755E-002   306751841        6282           0
</event>
<event>
    5  9999  2.9765200E-02  6.2941400E+01  -1.0000000E+00  1.3175100E-01
	21	-1	0	0	502	501	0.0000000000E+00	0.0000000000E+00	2.2820514180E+01	2.2820514180E+01	0.0000000000E+00	0.000E+00	9.0
	1	-1	0	0	501	0	0.0000000000E+00	0.0000000000E+00	-2.1754812060E+03	2.1754812060E+03	0.0000000000E+00	0.000E+00	9.0
	25	1	1	2	0	0	-1.6405101350E+01	2.0040759230E+01	-2.2281356520E+02	2.5679105170E+02	1.2500000000E+02	0.000E+00	9.0
	25	1	1	2	0	0	-5.2787116950E+00	-7.9129092330E+01	-1.4547013720E+03	1.4622141980E+03	1.2500000000E+02	0.000E+00	9.0
	1	1	1	2	502	0	2.1683813040E+01	5.9088333100E+01	-4.7514575380E+02	4.7929647010E+02	0.0000000000E+00	0.000E+00	9.0
#rwgt            1           1  0.12679089227883963        306751841        6354           0
</event>
<event>
    5  9999  2.9765200E-02  2.2105200E+02  -1.0000000E+00  1.0883900E-01
	21	-1	0	0	502	501	0.0000000000E+00	0.0000000000E+00	1.5172487390E+03	1.5172487390E+03	0.0000000000E+00	0.000E+00	9.0
	21	-1	0	0	501	511	0.0000000000E+00	0.0000000000E+00	-1.5025473470E+02	1.5025473470E+02	0.0000000000E+00	0.000E+00	9.0
	25	1	1	2	0	0	2.4534863540E+02	-9.0336849420E+01	6.9512842530E+02	7.5311700740E+02	1.2500000000E+02	0.000E+00	9.0
	25	1	1	2	0	0	-3.6468678620E+02	-9.5734420980E+01	3.9617715560E+02	5.6101949170E+02	1.2500000000E+02	0.000E+00	9.0
	21	1	1	2	502	511	1.1933815080E+02	1.8607127040E+02	2.7568842300E+02	3.5336697420E+02	3.8146972660E-06	0.000E+00	9.0
#rwgt            1           1   3.2909187387265046E-002   306751841        6514           0
</event>
<event>
    5  9999  2.9765200E-02  7.0489800E+00  -1.0000000E+00  2.1021700E-01
	21	-1	0	0	502	501	0.0000000000E+00	0.0000000000E+00	1.6603213260E+02	1.6603213260E+02	0.0000000000E+00	0.000E+00	9.0
	21	-1	0	0	501	512	0.0000000000E+00	0.0000000000E+00	-1.3866942900E+02	1.3866942900E+02	0.0000000000E+00	0.000E+00	9.0
	25	1	1	2	0	0	3.6444404670E+01	1.9438719440E+01	2.4482975390E+01	1.3390472180E+02	1.2500000000E+02	0.000E+00	9.0
	25	1	1	2	0	0	-4.2061421980E+01	-2.3697503690E+01	3.4525603580E+01	1.3837540320E+02	1.2500000000E+02	0.000E+00	9.0
	21	1	1	2	502	512	5.6170173150E+00	4.2587842510E+00	-3.1645875330E+01	3.2421436620E+01	4.7683715820E-07	0.000E+00	9.0
#rwgt            1           1   1.3115899572063397E-002   306751841        6561           0
</event>
<event>
    5  9999  2.9765200E-02  2.9180100E+01  -1.0000000E+00  1.5141200E-01
	21	-1	0	0	502	501	0.0000000000E+00	0.0000000000E+00	9.8889491530E+01	9.8889491530E+01	0.0000000000E+00	0.000E+00	9.0
	21	-1	0	0	511	502	0.0000000000E+00	0.0000000000E+00	-5.2412833640E+02	5.2412833640E+02	0.0000000000E+00	0.000E+00	9.0
	25	1	1	2	0	0	1.2054105080E+02	4.3730270850E+01	-2.0304913920E+02	2.7073314250E+02	1.2500000000E+02	0.000E+00	9.0
	25	1	1	2	0	0	-9.1654438950E+01	-3.9602067020E+01	-3.6207109840E+01	1.6402687190E+02	1.2500000000E+02	0.000E+00	9.0
	21	1	1	2	511	501	-2.8886611850E+01	-4.1282038310E+00	-1.8598259590E+02	1.8825781360E+02	0.0000000000E+00	0.000E+00	9.0
#rwgt            1           1   3.4409499617853161E-002   306751841        6862           0
</event>
<event>
    5  9999  2.9765200E-02  3.2672900E+01  -1.0000000E+00  1.4815000E-01
	21	-1	0	0	502	501	0.0000000000E+00	0.0000000000E+00	1.4786323120E+03	1.4786323120E+03	0.0000000000E+00	0.000E+00	9.0
	21	-1	0	0	501	512	0.0000000000E+00	0.0000000000E+00	-4.3543724100E+01	4.3543724100E+01	0.0000000000E+00	0.000E+00	9.0
	25	1	1	2	0	0	-3.3958422340E+01	-1.0123305730E+02	1.1746713920E+03	1.1861193810E+03	1.2500000000E+02	0.000E+00	9.0
	25	1	1	2	0	0	3.5953040590E+00	1.1329958270E+02	2.5027057260E+02	3.0184446520E+02	1.2500000000E+02	0.000E+00	9.0
	21	1	1	2	502	512	3.0363118280E+01	-1.2066525350E+01	1.0146623240E+01	3.4212190070E+01	8.4293697020E-07	0.000E+00	9.0
#rwgt            1           1   2.9531704188597296E-002   306751841        6990           0
</event>
<event>
    5  9999  2.9765200E-02  6.2332800E+01  -1.0000000E+00  1.3196700E-01
	21	-1	0	0	502	511	0.0000000000E+00	0.0000000000E+00	1.1056563270E+03	1.1056563270E+03	0.0000000000E+00	0.000E+00	9.0
	21	-1	0	0	501	502	0.0000000000E+00	0.0000000000E+00	-6.3677032520E+01	6.3677032520E+01	0.0000000000E+00	0.000E+00	9.0
	25	1	1	2	0	0	-7.8583238570E+01	1.7351973560E+02	4.9216060690E+02	5.4233890420E+02	1.2500000000E+02	0.000E+00	9.0
	25	1	1	2	0	0	2.0909004060E+01	-1.9716410530E+02	3.8439903280E+02	4.5022048740E+02	1.2500000000E+02	0.000E+00	9.0
	21	1	1	2	501	511	5.7674234520E+01	2.3644369660E+01	1.6541965450E+02	1.7677396770E+02	1.9073486330E-06	0.000E+00	9.0
#rwgt            1           1   2.8492671037185023E-002   306751841        7089           0
</event>
<event>
    5  9999  2.9765200E-02  3.2018800E+01  -1.0000000E+00  1.4872200E-01
	21	-1	0	0	502	512	0.0000000000E+00	0.0000000000E+00	7.8245446300E+02	7.8245446300E+02	0.0000000000E+00	0.000E+00	9.0
	21	-1	0	0	501	502	0.0000000000E+00	0.0000000000E+00	-7.3339098620E+01	7.3339098620E+01	0.0000000000E+00	0.000E+00	9.0
	25	1	1	2	0	0	-1.3864630800E+02	-7.1168303440E+00	1.2006968410E+02	2.2207020740E+02	1.2500000000E+02	0.000E+00	9.0
	25	1	1	2	0	0	1.1775595780E+02	3.1382000090E+01	3.3586021380E+02	3.7852130550E+02	1.2500000000E+02	0.000E+00	9.0
	21	1	1	2	501	512	2.0890350250E+01	-2.4265169750E+01	2.5318546650E+02	2.5520204860E+02	2.6973983050E-06	0.000E+00	9.0
#rwgt            1           1   5.9520701135290562E-003   306751841        7205           0
</event>
<event>
    5  9999  2.9765200E-02  1.7643900E+02  -1.0000000E+00  1.1233300E-01
	21	-1	0	0	502	501	0.0000000000E+00	0.0000000000E+00	4.3120074050E+02	4.3120074050E+02	0.0000000000E+00	0.000E+00	9.0
	21	-1	0	0	501	511	0.0000000000E+00	0.0000000000E+00	-2.7211156680E+02	2.7211156680E+02	0.0000000000E+00	0.000E+00	9.0
	25	1	1	2	0	0	9.6661943780E+01	-1.3965813330E+02	2.2018655300E+02	3.0488529590E+02	1.2500000000E+02	0.000E+00	9.0
	25	1	1	2	0	0	7.8783651310E+01	1.5835596980E+02	-4.5401180180E+01	2.2129108450E+02	1.2500000000E+02	0.000E+00	9.0
	21	1	1	2	502	511	-1.7544559510E+02	-1.8697836560E+01	-1.5696199090E+01	1.7713592690E+02	1.9515401770E-06	0.000E+00	9.0
#rwgt            1           1   3.7073891249142524E-002   306751841        7326           0
</event>
<event>
    5  9999  2.9765200E-02  2.2887300E+01  -1.0000000E+00  1.5894700E-01
	21	-1	0	0	502	512	0.0000000000E+00	0.0000000000E+00	7.2035672590E+01	7.2035672590E+01	0.0000000000E+00	0.000E+00	9.0
	21	-1	0	0	501	502	0.0000000000E+00	0.0000000000E+00	-9.8042324660E+02	9.8042324660E+02	0.0000000000E+00	0.000E+00	9.0
	25	1	1	2	0	0	-1.2311630170E+02	-1.0624393700E+02	-4.1645113030E+02	4.6422186710E+02	1.2500000000E+02	0.000E+00	9.0
	25	1	1	2	0	0	1.4572982020E+02	1.0977360160E+02	-5.1204836240E+02	5.5776872400E+02	1.2500000000E+02	0.000E+00	9.0
	21	1	1	2	501	512	-2.2613518460E+01	-3.5296645910E+00	2.0111918640E+01	3.0468328160E+01	1.4305114750E-06	0.000E+00	9.0
#rwgt            1           1   3.6585512406537693E-002   306751841        7400           0
</event>
<event>
    5  9999  2.9765200E-02  1.2305700E+01  -1.0000000E+00  1.8225200E-01
	21	-1	0	0	511	501	0.0000000000E+00	0.0000000000E+00	4.6863836450E+02	4.6863836450E+02	0.0000000000E+00	0.000E+00	9.0
	21	-1	0	0	501	502	0.0000000000E+00	0.0000000000E+00	-1.5832203650E+02	1.5832203650E+02	0.0000000000E+00	0.000E+00	9.0
	25	1	1	2	0	0	-1.9416002990E+02	1.5580403620E+01	1.2631109640E+02	2.6366713730E+02	1.2500000000E+02	0.000E+00	9.0
	25	1	1	2	0	0	2.0418756210E+02	-2.2713429420E+01	7.2593026460E+01	2.5120351880E+02	1.2500000000E+02	0.000E+00	9.0
	21	1	1	2	511	502	-1.0027532150E+01	7.1330258040E+00	1.1141220510E+02	1.1208974490E+02	1.3486991520E-06	0.000E+00	9.0
#rwgt            1           1   3.0156128243700026E-002   306751841        7530           0
</event>
<event>
    5  9999  2.9765200E-02  9.4100000E+01  -1.0000000E+00  1.2341000E-01
	21	-1	0	0	502	512	0.0000000000E+00	0.0000000000E+00	8.6610582090E+02	8.6610582090E+02	0.0000000000E+00	0.000E+00	9.0
	21	-1	0	0	501	502	0.0000000000E+00	0.0000000000E+00	-1.1175867680E+02	1.1175867680E+02	0.0000000000E+00	0.000E+00	9.0
	25	1	1	2	0	0	-1.1711605360E+01	6.6926368960E+01	4.9396146350E+02	5.1404204890E+02	1.2500000000E+02	0.000E+00	9.0
	25	1	1	2	0	0	4.0920163970E+01	2.2525679360E+01	-4.7680614230E+01	1.4170500000E+02	1.2500000000E+02	0.000E+00	9.0
	21	1	1	2	501	512	-2.9208558620E+01	-8.9452048310E+01	3.0806629480E+02	3.2211744880E+02	3.8146972660E-06	0.000E+00	9.0
#rwgt            2          11   1.1679212136344991E-003   306751841        7723           0
</event>
<event>
    5  9999  2.9765200E-02  4.6244400E+01  -1.0000000E+00  1.3897200E-01
	-3	-1	0	0	0	501	0.0000000000E+00	0.0000000000E+00	7.7185395300E+02	7.7185395300E+02	0.0000000000E+00	0.000E+00	9.0
	21	-1	0	0	501	502	0.0000000000E+00	0.0000000000E+00	-1.0828926790E+02	1.0828926790E+02	0.0000000000E+00	0.000E+00	9.0
	25	1	1	2	0	0	3.4216950090E+01	-1.4376887010E+02	3.3029726050E+02	3.8283360350E+02	1.2500000000E+02	0.000E+00	9.0
	25	1	1	2	0	0	-4.5782413240E+01	9.8994083710E+01	5.1756734010E+00	1.6597483410E+02	1.2500000000E+02	0.000E+00	9.0
	-3	1	1	2	0	502	1.1565463150E+01	4.4774786410E+01	3.2809175120E+02	3.3133478340E+02	3.8146972660E-06	0.000E+00	9.0
#rwgt            1           1   2.6171960343775526E-002   306751841        7773           0
</event>
<event>
    5  9999  2.9765200E-02  9.3555800E+00  -1.0000000E+00  1.9497400E-01
	21	-1	0	0	511	501	0.0000000000E+00	0.0000000000E+00	5.1676818640E+02	5.1676818640E+02	0.0000000000E+00	0.000E+00	9.0
	21	-1	0	0	501	502	0.0000000000E+00	0.0000000000E+00	-2.8970744000E+02	2.8970744000E+02	0.0000000000E+00	0.000E+00	9.0
	25	1	1	2	0	0	-1.3528757340E+02	2.1915789610E+02	3.1720784330E+01	2.8803492690E+02	1.2500000000E+02	0.000E+00	9.0
	25	1	1	2	0	0	1.3660039390E+02	-2.2842090850E+02	-2.7572449410E+01	2.9533204870E+02	1.2500000000E+02	0.000E+00	9.0
	21	1	1	2	511	502	-1.3128204950E+00	9.2630124090E+00	2.2291241140E+02	2.2310865080E+02	0.0000000000E+00	0.000E+00	9.0
#rwgt            1           1   3.0029149320583252E-002   306751841        8029           0
</event>
<event>
    5  9999  2.9765200E-02  7.5178600E+01  -1.0000000E+00  1.2792800E-01
	21	-1	0	0	502	501	0.0000000000E+00	0.0000000000E+00	9.6056568150E+02	9.6056568150E+02	0.0000000000E+00	0.000E+00	9.0
	21	-1	0	0	512	502	0.0000000000E+00	0.0000000000E+00	-2.7008350300E+02	2.7008350300E+02	0.0000000000E+00	0.000E+00	9.0
	25	1	1	2	0	0	1.6764436030E+01	6.0009745670E+01	8.5252535120E+02	8.6389043890E+02	1.2500000000E+02	0.000E+00	9.0
	25	1	1	2	0	0	-4.4274932830E+01	-1.2997400840E+02	-2.0785993770E+02	2.7871897360E+02	1.2500000000E+02	0.000E+00	9.0
	21	1	1	2	512	501	2.7510496800E+01	6.9964262740E+01	4.5816765100E+01	8.8039772030E+01	9.5367431640E-07	0.000E+00	9.0
#rwgt            1           1  0.14372672609608761        306751841        8442           0
</event>
<event>
    5  9999  2.9765200E-02  1.8049400E+02  -1.0000000E+00  1.1197100E-01
	21	-1	0	0	502	501	0.0000000000E+00	0.0000000000E+00	5.7980960680E+02	5.7980960680E+02	0.0000000000E+00	0.000E+00	9.0
	21	-1	0	0	511	502	0.0000000000E+00	0.0000000000E+00	-1.6425965440E+02	1.6425965440E+02	0.0000000000E+00	0.000E+00	9.0
	25	1	1	2	0	0	3.4908330060E+01	-2.4606016190E+01	6.6042558490E+01	1.4768434940E+02	1.2500000000E+02	0.000E+00	9.0
	25	1	1	2	0	0	-1.1201771110E+02	-1.3858810280E+02	3.5430548060E+02	4.1582689120E+02	1.2500000000E+02	0.000E+00	9.0
	21	1	1	2	511	501	7.7109381050E+01	1.6319411900E+02	-4.7980866930E+00	1.8055802050E+02	2.1843292950E-06	0.000E+00	9.0
#rwgt            1           1   3.0417446967121238E-002   306751841        8542           0
</event>
<event>
    5  9999  2.9765200E-02  7.7834800E+01  -1.0000000E+00  1.2720700E-01
	21	-1	0	0	502	501	0.0000000000E+00	0.0000000000E+00	5.4789849810E+01	5.4789849810E+01	0.0000000000E+00	0.000E+00	9.0
	-1	-1	0	0	0	502	0.0000000000E+00	0.0000000000E+00	-1.3516674760E+03	1.3516674760E+03	0.0000000000E+00	0.000E+00	9.0
	25	1	1	2	0	0	-3.8987561830E+01	-3.9350378490E+01	-5.9833050720E+01	1.4924301060E+02	1.2500000000E+02	0.000E+00	9.0
	25	1	1	2	0	0	-3.7373530800E+01	5.4424987090E+01	-6.6194580740E+02	6.7687230110E+02	1.2500000000E+02	0.000E+00	9.0
	-1	1	1	2	0	501	7.6361092630E+01	-1.5074608610E+01	-5.7509876840E+02	5.8034201450E+02	1.0789593220E-05	0.000E+00	9.0
#rwgt            1           1   3.4850182347050680E-002   306751841        8661           0
</event>
<event>
    5  9999  2.9765200E-02  1.0541500E+02  -1.0000000E+00  1.2124700E-01
	21	-1	0	0	502	501	0.0000000000E+00	0.0000000000E+00	7.4857194230E+02	7.4857194230E+02	0.0000000000E+00	0.000E+00	9.0
	21	-1	0	0	501	511	0.0000000000E+00	0.0000000000E+00	-1.2294984410E+02	1.2294984410E+02	0.0000000000E+00	0.000E+00	9.0
	25	1	1	2	0	0	-1.2955214480E+02	-4.2316305120E+01	3.1744633200E+02	3.6738481410E+02	1.2500000000E+02	0.000E+00	9.0
	25	1	1	2	0	0	1.4143081390E+02	-6.2426904310E+01	3.4014262520E+02	3.9398197800E+02	1.2500000000E+02	0.000E+00	9.0
	21	1	1	2	502	511	-1.1878669120E+01	1.0474320940E+02	-3.1966859010E+01	1.1015499430E+02	1.1680077280E-06	0.000E+00	9.0
#rwgt            1           1   2.7928902407331615E-002   306751841        8776           0
</event>
<event>
    5  9999  2.9765200E-02  2.7492400E+01  -1.0000000E+00  1.5319100E-01
	21	-1	0	0	502	501	0.0000000000E+00	0.0000000000E+00	1.6423065100E+02	1.6423065100E+02	0.0000000000E+00	0.000E+00	9.0
	21	-1	0	0	512	502	0.0000000000E+00	0.0000000000E+00	-3.8642647140E+02	3.8642647140E+02	0.0000000000E+00	0.000E+00	9.0
	25	1	1	2	0	0	-1.3489274710E+02	-5.8963937270E+01	3.7192505070E+01	1.9667506590E+02	1.2500000000E+02	0.000E+00	9.0
	25	1	1	2	0	0	1.3330050540E+02	3.1517694300E+01	-1.4239732820E+02	2.3380416780E+02	1.2500000000E+02	0.000E+00	9.0
	21	1	1	2	512	501	1.5922417230E+00	2.7446242970E+01	-1.1699099730E+02	1.2017788870E+02	0.0000000000E+00	0.000E+00	9.0
#rwgt            1           1   2.0647376540756436E-003   306751841        8891           0
</event>
<event>
    5  9999  2.9765200E-02  4.0557100E+01  -1.0000000E+00  1.4229800E-01
	21	-1	0	0	502	501	0.0000000000E+00	0.0000000000E+00	6.1663426890E+02	6.1663426890E+02	0.0000000000E+00	0.000E+00	9.0
	21	-1	0	0	501	511	0.0000000000E+00	0.0000000000E+00	-9.9490022990E+01	9.9490022990E+01	0.0000000000E+00	0.000E+00	9.0
	25	1	1	2	0	0	-2.3319452520E+01	-6.3512787280E+00	5.2446216930E+02	5.3969408240E+02	1.2500000000E+02	0.000E+00	9.0
	25	1	1	2	0	0	-1.6472287690E+01	1.4193167310E+01	-2.9417702220E+01	1.3024278660E+02	1.2500000000E+02	0.000E+00	9.0
	21	1	1	2	502	511	3.9791740210E+01	-7.8418885830E+00	2.2099778890E+01	4.6187422880E+01	9.5367431640E-07	0.000E+00	9.0
#rwgt            1           1   2.4436535929042772E-002   306751841        9060           0
</event>
<event>
    5  9999  2.9765200E-02  6.9106200E+01  -1.0000000E+00  1.2971200E-01
	21	-1	0	0	502	501	0.0000000000E+00	0.0000000000E+00	2.4709948000E+01	2.4709948000E+01	0.0000000000E+00	0.000E+00	9.0
	-1	-1	0	0	0	502	0.0000000000E+00	0.0000000000E+00	-3.6056549110E+03	3.6056549110E+03	0.0000000000E+00	0.000E+00	9.0
	25	1	1	2	0	0	8.5149152580E+01	-1.6420295030E+02	-7.9361334760E+02	8.2441502440E+02	1.2500000000E+02	0.000E+00	9.0
	25	1	1	2	0	0	-3.7076035170E+01	2.1384806500E+02	-2.3306563660E+03	2.3440754520E+03	1.2500000000E+02	0.000E+00	9.0
	-1	1	1	2	0	501	-4.8073117410E+01	-4.9645114660E+01	-4.5667524860E+02	4.6187438200E+02	0.0000000000E+00	0.000E+00	9.0
#rwgt            1           1   1.8728353299231951E-002   306751841        9229           0
</event>
<event>
    5  9999  2.9765200E-02  4.4947600E+01  -1.0000000E+00  1.3967900E-01
	21	-1	0	0	511	501	0.0000000000E+00	0.0000000000E+00	5.2525243350E+02	5.2525243350E+02	0.0000000000E+00	0.000E+00	9.0
	21	-1	0	0	501	502	0.0000000000E+00	0.0000000000E+00	-1.8191443700E+02	1.8191443700E+02	0.0000000000E+00	0.000E+00	9.0
	25	1	1	2	0	0	6.5558177750E+01	4.3934309420E+01	-1.3134473890E+02	1.9774867540E+02	1.2500000000E+02	0.000E+00	9.0
	25	1	1	2	0	0	-2.1638943360E+01	-5.3493879540E+01	3.2055141950E+02	3.4886681060E+02	1.2500000000E+02	0.000E+00	9.0
	21	1	1	2	511	502	-4.3919234380E+01	9.5595701210E+00	1.5413131590E+02	1.6055138450E+02	1.9073486330E-06	0.000E+00	9.0
#rwgt            1           1   3.4364509764535936E-002   306751841        9272           0
</event>
<event>
    5  9999  2.9765200E-02  6.0902700E+01  -1.0000000E+00  1.3248500E-01
	21	-1	0	0	502	501	0.0000000000E+00	0.0000000000E+00	1.9680678090E+02	1.9680678090E+02	0.0000000000E+00	0.000E+00	9.0
	21	-1	0	0	501	512	0.0000000000E+00	0.0000000000E+00	-5.3449490840E+02	5.3449490840E+02	0.0000000000E+00	0.000E+00	9.0
	25	1	1	2	0	0	-2.5430363790E+01	1.7790597580E+02	-9.3776717160E+01	2.3815186820E+02	1.2500000000E+02	0.000E+00	9.0
	25	1	1	2	0	0	8.1130250320E+00	-1.1951715280E+02	5.9970059940E+01	1.8322548700E+02	1.2500000000E+02	0.000E+00	9.0
	21	1	1	2	502	512	1.7317338760E+01	-5.8388823030E+01	-3.0388147030E+02	3.0992433410E+02	3.8146972660E-06	0.000E+00	9.0
#rwgt            1           1   2.6396166802042095E-002   306751841        9418           0
</event>
<event>
    5  9999  2.9765200E-02  1.2659100E+02  -1.0000000E+00  1.1791800E-01
	2	-1	0	0	502	0	0.0000000000E+00	0.0000000000E+00	1.9902229190E+03	1.9902229190E+03	0.0000000000E+00	0.000E+00	9.0
	21	-1	0	0	501	502	0.0000000000E+00	0.0000000000E+00	-1.2403795780E+02	1.2403795780E+02	0.0000000000E+00	0.000E+00	9.0
	25	1	1	2	0	0	-1.9906912160E+02	3.4315897680E+01	2.2298852330E+02	3.2581432990E+02	1.2500000000E+02	0.000E+00	9.0
	25	1	1	2	0	0	2.6037345160E+02	7.6440788510E+01	2.5015939170E+02	3.8966941080E+02	1.2500000000E+02	0.000E+00	9.0
	2	1	1	2	501	0	-6.1304329980E+01	-1.1075668620E+02	1.3930370460E+03	1.3987771360E+03	2.1579186440E-05	0.000E+00	9.0
#rwgt            1           1   3.0556514718848557E-002   306751841        9553           0
</event>
<event>
    5  9999  2.9765200E-02  3.6539200E+01  -1.0000000E+00  1.4506200E-01
	21	-1	0	0	511	501	0.0000000000E+00	0.0000000000E+00	1.7840291650E+02	1.7840291650E+02	0.0000000000E+00	0.000E+00	9.0
	21	-1	0	0	501	502	0.0000000000E+00	0.0000000000E+00	-3.8836650820E+02	3.8836650820E+02	0.0000000000E+00	0.000E+00	9.0
	25	1	1	2	0	0	8.2469730020E+01	-3.2574862180E+01	-3.2452138790E+02	3.5888927150E+02	1.2500000000E+02	0.000E+00	9.0
	25	1	1	2	0	0	-5.1782782870E+01	1.2739925610E+01	8.0633532750E+01	1.5802065980E+02	1.2500000000E+02	0.000E+00	9.0
	21	1	1	2	511	502	-3.0686947140E+01	1.9834936570E+01	3.3924263410E+01	4.9859493390E+01	4.7683715820E-07	0.000E+00	9.0
#rwgt            1           1   2.5139833959612858E-002   306751841        9713           0
</event>
<event>
    5  9999  2.9765200E-02  1.0196300E+01  -1.0000000E+00  1.9078500E-01
	2	-1	0	0	502	0	0.0000000000E+00	0.0000000000E+00	4.3005961290E+03	4.3005961290E+03	0.0000000000E+00	0.000E+00	9.0
	21	-1	0	0	501	502	0.0000000000E+00	0.0000000000E+00	-1.9483606320E+02	1.9483606320E+02	0.0000000000E+00	0.000E+00	9.0
	25	1	1	2	0	0	-8.0123979000E+00	1.5809958720E+01	2.1036444020E+02	2.4534129500E+02	1.2500000000E+02	0.000E+00	9.0
	25	1	1	2	0	0	1.2151545660E+01	-6.4915963330E+00	-1.5504690830E+02	1.9963552960E+02	1.2500000000E+02	0.000E+00	9.0
	2	1	1	2	501	0	-4.1391477630E+00	-9.3183623820E+00	4.0504425340E+03	4.0504553670E+03	6.1035156250E-05	0.000E+00	9.0
#rwgt            1           1   2.6707638583140715E-002   306751841        9826           0
</event>
<event>
    5  9999  2.9765200E-02  5.1313200E+01  -1.0000000E+00  1.3644600E-01
	21	-1	0	0	502	501	0.0000000000E+00	0.0000000000E+00	4.1546017520E+02	4.1546017520E+02	0.0000000000E+00	0.000E+00	9.0
	21	-1	0	0	501	511	0.0000000000E+00	0.0000000000E+00	-4.3323306190E+02	4.3323306190E+02	0.0000000000E+00	0.000E+00	9.0
	25	1	1	2	0	0	-6.1800181330E+01	6.5053983560E+01	-1.1861643150E+01	1.5432751460E+02	1.2500000000E+02	0.000E+00	9.0
	25	1	1	2	0	0	1.8135996010E+01	-3.8100661750E+01	3.2956330770E+02	3.5498950480E+02	1.2500000000E+02	0.000E+00	9.0
	21	1	1	2	502	511	4.3664185320E+01	-2.6953321810E+01	-3.3547455110E+02	3.3937621760E+02	0.0000000000E+00	0.000E+00	9.0
#rwgt            1           1   3.3855572587476568E-002   306751841       10069           0
</event>
<event>
    5  9999  2.9765200E-02  6.2096200E+01  -1.0000000E+00  1.3205100E-01
	21	-1	0	0	502	512	0.0000000000E+00	0.0000000000E+00	3.4735328280E+02	3.4735328280E+02	0.0000000000E+00	0.000E+00	9.0
	21	-1	0	0	501	502	0.0000000000E+00	0.0000000000E+00	-3.4748868160E+02	3.4748868160E+02	0.0000000000E+00	0.000E+00	9.0
	25	1	1	2	0	0	4.7149736950E+00	-1.5318078070E+02	-2.4251102760E+02	3.1292679820E+02	1.2500000000E+02	0.000E+00	9.0
	25	1	1	2	0	0	5.0521678340E+01	1.8155069410E+02	2.2112848670E+02	3.1628452720E+02	1.2500000000E+02	0.000E+00	9.0
	21	1	1	2	501	512	-5.5236652040E+01	-2.8369913460E+01	2.1247142060E+01	6.5630638910E+01	2.3841857910E-07	0.000E+00	9.0
#rwgt            1           1   3.1695174153147154E-002   306751841       10236           0
</event>
<event>
    5  9999  2.9765200E-02  6.8588300E+01  -1.0000000E+00  1.2987300E-01
	21	-1	0	0	502	501	0.0000000000E+00	0.0000000000E+00	1.2922625760E+02	1.2922625760E+02	0.0000000000E+00	0.000E+00	9.0
	-3	-1	0	0	0	502	0.0000000000E+00	0.0000000000E+00	-2.0517563820E+03	2.0517563820E+03	0.0000000000E+00	0.000E+00	9.0
	25	1	1	2	0	0	-1.8262140490E+02	1.8618119350E+02	-1.4263802020E+02	3.2246646200E+02	1.2500000000E+02	0.000E+00	9.0
	25	1	1	2	0	0	2.5100584020E+02	-1.8089731560E+02	-6.8986341480E+02	7.6633171780E+02	1.2500000000E+02	0.000E+00	9.0
	-3	1	1	2	0	501	-6.8384435320E+01	-5.2838778430E+00	-1.0900286890E+03	1.0921844600E+03	0.0000000000E+00	0.000E+00	9.0
#rwgt            1           1   8.3464520067865824E-002   306751841       10342           0
</event>
<event>
    5  9999  -2.9765200E-02  1.0965200E+02  -1.0000000E+00  1.2051400E-01
	21	-1	0	0	502	501	0.0000000000E+00	0.0000000000E+00	9.3784123890E+02	9.3784123890E+02	0.0000000000E+00	0.000E+00	9.0
	21	-1	0	0	511	502	0.0000000000E+00	0.0000000000E+00	-1.1759169960E+03	1.1759169960E+03	0.0000000000E+00	0.000E+00	9.0
	25	1	1	2	0	0	-7.7093576110E+01	6.6035199840E+00	1.0153879200E+02	1.7866771460E+02	1.2500000000E+02	0.000E+00	9.0
	25	1	1	2	0	0	8.5248638010E+01	1.0274450330E+02	7.8455290170E+02	8.0558799570E+02	1.2500000000E+02	0.000E+00	9.0
	21	1	1	2	511	501	-8.1550619000E+00	-1.0934802320E+02	-1.1241674500E+03	1.1295025240E+03	0.0000000000E+00	0.000E+00	9.0
#rwgt            1           1 -0.13800299544578901        306751841       10507           0
</event>
<event>
    5  9999  2.9765200E-02  4.3135600E+01  -1.0000000E+00  1.4071500E-01
	21	-1	0	0	512	501	0.0000000000E+00	0.0000000000E+00	1.1792715930E+03	1.1792715930E+03	0.0000000000E+00	0.000E+00	9.0
	21	-1	0	0	501	502	0.0000000000E+00	0.0000000000E+00	-1.0187995010E+02	1.0187995010E+02	0.0000000000E+00	0.000E+00	9.0
	25	1	1	2	0	0	-9.4805513500E+01	2.6930370840E+02	2.7237431610E+02	4.1391465400E+02	1.2500000000E+02	0.000E+00	9.0
	25	1	1	2	0	0	9.1757542500E+01	-2.2627593500E+02	6.3273846230E+02	6.8963991110E+02	1.2500000000E+02	0.000E+00	9.0
	21	1	1	2	512	502	3.0479709950E+00	-4.3027773400E+01	1.7227886510E+02	1.7759697850E+02	1.9073486330E-06	0.000E+00	9.0
#rwgt            1           1   3.3016181522874992E-002   306751841       10602           0
</event>
<event>
    5  9999  2.9765200E-02  5.5618300E+01  -1.0000000E+00  1.3455400E-01
	2	-1	0	0	502	0	0.0000000000E+00	0.0000000000E+00	1.7639382100E+02	1.7639382100E+02	0.0000000000E+00	0.000E+00	9.0
	21	-1	0	0	501	502	0.0000000000E+00	0.0000000000E+00	-2.2256451980E+02	2.2256451980E+02	0.0000000000E+00	0.000E+00	9.0
	25	1	1	2	0	0	9.8056885570E+01	-6.8871953500E+01	-2.4700874170E+01	1.7491035410E+02	1.2500000000E+02	0.000E+00	9.0
	25	1	1	2	0	0	-5.0379960200E+01	9.7512886340E+01	-2.5464273460E+01	1.6828646000E+02	1.2500000000E+02	0.000E+00	9.0
	2	1	1	2	501	0	-4.7676925370E+01	-2.8640932830E+01	3.9944488350E+00	5.5761526770E+01	2.0212918470E-07	0.000E+00	9.0
#rwgt            1           1   2.3723731196469488E-002   306751841       10839           0
</event>
</LesHouchesEvents>
